/*--------------------------------*- C++ -*----------------------------------*\
| =========                 |                                                 |
| \\      /  F ield         | OpenFOAM: The Open Source CFD Toolbox           |
|  \\    /   O peration     | Version:  3.0.1                                 |
|   \\  /    A nd           | Web:      www.OpenFOAM.org                      |
|    \\/     M anipulation  |                                                 |
\*---------------------------------------------------------------------------*/
FoamFile
{
    version     2.0;
    format      ascii;
    class       volScalarField;
    location    "0.1";
    object      p;
}
// * * * * * * * * * * * * * * * * * * * * * * * * * * * * * * * * * * * * * //

dimensions      [0 2 -2 0 0 0 0];

internalField   nonuniform List<scalar> 
125
(
-0.052859323
-0.053227381
-0.053511842
-0.053657336
-0.053627959
-0.052808337
-0.053061471
-0.053253142
-0.053346821
-0.053323485
-0.052775969
-0.052957174
-0.053090134
-0.053151704
-0.053132709
-0.052757874
-0.05289419
-0.052990447
-0.053032261
-0.053014433
-0.052749974
-0.052862734
-0.052941088
-0.052973823
-0.052956163
-0.052846194
-0.05320544
-0.053482106
-0.053626222
-0.05360616
-0.052802261
-0.053048177
-0.053233198
-0.053324579
-0.053304641
-0.052774926
-0.052948389
-0.053075483
-0.053135002
-0.053117035
-0.052758824
-0.052887943
-0.052980174
-0.053021206
-0.053004979
-0.052750381
-0.052858101
-0.052934252
-0.052967102
-0.05295195
-0.052838863
-0.053182532
-0.053447609
-0.053588013
-0.053574487
-0.052799775
-0.053034263
-0.053210853
-0.053299267
-0.053282464
-0.052774979
-0.052939313
-0.053059946
-0.053116984
-0.053100597
-0.052759432
-0.052881539
-0.052968954
-0.053008045
-0.052993005
-0.052750901
-0.052853249
-0.052925464
-0.052956554
-0.052942271
-0.052834666
-0.053159983
-0.053411355
-0.053546477
-0.053537225
-0.052799328
-0.053020642
-0.053188209
-0.05327335
-0.053259466
-0.052776227
-0.052930981
-0.053044768
-0.053098694
-0.053083595
-0.052760927
-0.052876027
-0.052957602
-0.052993212
-0.052978068
-0.0527525
-0.052849021
-0.052915647
-0.052942961
-0.052927826
-0.052832902
-0.05313854
-0.053377788
-0.053508
-0.053498968
-0.052801545
-0.053009421
-0.053168925
-0.053250696
-0.053238062
-0.052780304
-0.052925247
-0.053032046
-0.053081894
-0.053066966
-0.052765254
-0.052872909
-0.052947266
-0.052977373
-0.052960268
-0.052756908
-0.052846514
-0.052905424
-0.052926663
-0.05290857
)
;

boundaryField
{
    movingWall
    {
        type            zeroGradient;
    }
    CPLReceiveMD
    {
        type            zeroGradient;
    }
    streamwiseIn
    {
        type            cyclic;
    }
    streamwiseOut
    {
        type            cyclic;
    }
    front
    {
        type            cyclic;
    }
    back
    {
        type            cyclic;
    }
    procBoundary7to4
    {
        type            processor;
        value           nonuniform List<scalar> 
25
(
-0.05293467
-0.053479889
-0.053910838
-0.054144829
-0.054120358
-0.052916085
-0.0534463
-0.053865176
-0.05409666
-0.054084556
-0.052899878
-0.053407166
-0.053808087
-0.054032916
-0.054029103
-0.05288624
-0.053366322
-0.053745372
-0.053960339
-0.053962571
-0.052876676
-0.053325984
-0.053683136
-0.05388826
-0.053896466
)
;
    }
    procBoundary7to6
    {
        type            processor;
        value           nonuniform List<scalar> 
25
(
-0.052461641
-0.052530612
-0.052576789
-0.052607615
-0.052624223
-0.052462954
-0.052535167
-0.052583029
-0.052612888
-0.052627214
-0.052471514
-0.05254466
-0.052591922
-0.052619764
-0.052632235
-0.052484935
-0.052556984
-0.052602415
-0.052627906
-0.052638996
-0.052501359
-0.052571222
-0.052614703
-0.052638092
-0.052648381
)
;
    }
    procBoundary7to8
    {
        type            processor;
        value           nonuniform List<scalar> 
25
(
-0.053422436
-0.053180715
-0.053031887
-0.052940584
-0.052895822
-0.053414463
-0.053172236
-0.053022912
-0.052934721
-0.05289356
-0.053395698
-0.053159178
-0.053013254
-0.052927906
-0.052888065
-0.053370968
-0.053144031
-0.053002914
-0.052919362
-0.052879874
-0.053345108
-0.053127974
-0.052991305
-0.052908687
-0.052869513
)
;
    }
    procBoundary7to16
    {
        type            processor;
        value           nonuniform List<scalar> 
25
(
-0.052832116
-0.053121173
-0.05334767
-0.053470707
-0.053462824
-0.052803238
-0.053001978
-0.053154176
-0.053231061
-0.05321629
-0.052783334
-0.052922501
-0.053024817
-0.053071737
-0.053054979
-0.052768899
-0.052872452
-0.052943574
-0.052971675
-0.052954333
-0.05276105
-0.052847223
-0.052903123
-0.052922613
-0.052905952
)
;
    }
    procBoundary7to25throughfront
    {
        type            processorCyclic;
        value           nonuniform List<scalar> 
25
(
-0.052869931
-0.052813284
-0.052778186
-0.052759708
-0.052752725
-0.053241151
-0.053069839
-0.052961963
-0.052897393
-0.052866107
-0.053525347
-0.053262426
-0.053096471
-0.052995166
-0.052945444
-0.05366809
-0.053354704
-0.053158013
-0.053037626
-0.052978857
-0.053632974
-0.053327147
-0.053136587
-0.053018929
-0.052961424
)
;
    }
}


// ************************************************************************* //
