/*--------------------------------*- C++ -*----------------------------------*\
| =========                 |                                                 |
| \\      /  F ield         | OpenFOAM: The Open Source CFD Toolbox           |
|  \\    /   O peration     | Version:  3.0.1                                 |
|   \\  /    A nd           | Web:      www.OpenFOAM.org                      |
|    \\/     M anipulation  |                                                 |
\*---------------------------------------------------------------------------*/
FoamFile
{
    version     2.0;
    format      ascii;
    class       surfaceScalarField;
    location    "0.1";
    object      phi;
}
// * * * * * * * * * * * * * * * * * * * * * * * * * * * * * * * * * * * * * //

dimensions      [0 3 -1 0 0 0 0];

internalField   nonuniform List<scalar> 
300
(
0.00073504601
-0.00010183697
-2.6223235e-05
0.00056812142
-0.00033137905
-4.3821192e-05
0.00029060762
-0.00051673938
-5.9387802e-05
-5.8633188e-05
-0.00062027404
-6.2135021e-05
-0.00060823728
-4.3521995e-05
0.00050551629
-6.4644546e-05
-1.2135723e-05
0.00038278267
-0.00020829476
-2.6550992e-05
0.00018709481
-0.00032555932
-3.9830254e-05
-4.659033e-05
-0.00038969858
-4.4418458e-05
-0.00038103951
-3.7626142e-05
0.000361869
-3.6138417e-05
-2.0850115e-06
0.00026552474
-0.00012578288
-1.7545621e-05
0.0001229631
-0.00019908224
-2.9258993e-05
-3.7928816e-05
-0.00023854356
-3.3355062e-05
-0.00023621658
-3.1299008e-05
0.0002722247
-1.5775539e-05
1.8970851e-06
0.00019222679
-6.2811294e-05
-1.2477348e-05
8.3503854e-05
-9.8560602e-05
-2.0515334e-05
-3.5601035e-05
-0.00011669023
-2.207692e-05
-0.00011635521
-1.8878012e-05
0.00022512691
8.134309e-07
0.00015643435
-9.2503932e-06
6.5356236e-05
-1.3647787e-05
-3.5256976e-05
-1.3418367e-05
-8.4107151e-06
0.00071745334
-8.7750537e-05
-1.4645807e-05
0.00055255995
-0.00031411322
-4.5754129e-05
0.00028786374
-0.0004971887
-6.8900898e-05
-4.001995e-05
-0.00060256613
-7.6312559e-05
-0.00060235061
-6.3251156e-05
0.0004911027
-5.4594116e-05
-4.9673991e-06
0.00036950519
-0.00019929102
-2.7788364e-05
0.00018250788
-0.0003149909
-4.4625654e-05
-3.979759e-05
-0.00037863903
-5.0549072e-05
-0.00037471676
-4.4284942e-05
0.000346409
-3.2156429e-05
1.0455894e-07
0.00025381203
-0.00012071508
-1.8126068e-05
0.00011886755
-0.00019033946
-3.1028497e-05
-3.5872522e-05
-0.00022726678
-3.5981943e-05
-0.00022379727
-3.2826082e-05
0.00025785048
-1.6858897e-05
1.2127091e-06
0.00018418904
-5.9587218e-05
-1.278867e-05
8.1942475e-05
-9.1697626e-05
-2.240824e-05
-3.2402001e-05
-0.00010803657
-2.6282532e-05
-0.00010589189
-2.3912523e-05
0.00021506315
1.0365376e-06
0.00015203704
-9.6871735e-06
6.5585733e-05
-1.754518e-05
-3.0249263e-05
-2.1058764e-05
-1.9324554e-05
0.0006863467
-7.807135e-05
-8.3928052e-06
0.00052941519
-0.00029614641
-4.505007e-05
0.00028045363
-0.00047291196
-7.2426715e-05
-2.6958481e-05
-0.00057680109
-8.2980495e-05
-0.00058338405
-7.4441879e-05
0.0004682825
-4.9521832e-05
-8.9581381e-07
0.00035266872
-0.00018962854
-2.7206609e-05
0.00017658505
-0.0003013936
-4.522945e-05
-3.3533405e-05
-0.00036407189
-5.1767376e-05
-0.00036325836
-4.5937335e-05
0.00032817868
-3.1048205e-05
2.4923852e-06
0.00024090991
-0.00011537772
-1.6640231e-05
0.00011391433
-0.00018171932
-3.0311629e-05
-3.2716614e-05
-0.00021756762
-3.6528518e-05
-0.00021488415
-3.3955634e-05
0.00024384922
-1.7034766e-05
2.9848395e-06
0.00017456959
-5.648855e-05
-1.1007998e-05
7.8068268e-05
-8.6839612e-05
-2.2671151e-05
-3.0031962e-05
-0.00010281881
-2.962143e-05
-0.00010130946
-2.98292e-05
0.00020433949
3.1919798e-06
0.00014417908
-8.4409885e-06
6.2072187e-05
-1.9601052e-05
-2.8515031e-05
-2.7139583e-05
-2.8840416e-05
0.0006496898
-7.0571625e-05
-3.5410416e-06
0.00050203946
-0.00027829727
-4.285363e-05
0.00026990066
-0.0004457062
-6.7079657e-05
-1.8420402e-05
-0.00054557811
-7.6894946e-05
-0.00055487111
-7.6453848e-05
0.00044197189
-4.6132731e-05
4.4221828e-06
0.00033464623
-0.0001790604
-2.2417888e-05
0.00017004749
-0.00028647303
-3.852471e-05
-2.7703607e-05
-0.0003488297
-4.5258101e-05
-0.00035127368
-4.2762228e-05
0.00030904617
-3.0555549e-05
8.1396085e-06
0.00022723865
-0.00010974516
-1.1453785e-05
0.00010769756
-0.0001740783
-2.541154e-05
-3.0143843e-05
-0.00021065976
-3.355573e-05
-0.00021075695
-3.3214437e-05
0.00022985643
-1.6826803e-05
8.6404055e-06
0.00016290649
-5.3923894e-05
-6.2284331e-06
7.1118029e-05
-8.377466e-05
-2.0642767e-05
-3.0239781e-05
-0.00010034386
-3.1634522e-05
-0.0001003278
-3.5549668e-05
0.00019270654
8.8020021e-06
0.00013301904
-5.0070122e-06
5.4533666e-05
-2.0411354e-05
-3.0215886e-05
-3.2539886e-05
-3.8446041e-05
0.00061037565
-6.260431e-05
0.00047781228
-0.00025785204
0.00026008467
-0.00041713683
-1.7980702e-05
-0.00051392435
-0.00052116379
0.00041513132
-4.2414148e-05
0.00031853892
-0.00016809318
0.00016331362
-0.00027335479
-2.5208774e-05
-0.00033712105
-0.00034171961
0.00028945264
-3.0054515e-05
0.00021328074
-0.00010451918
9.9553176e-05
-0.00016930831
-2.9803004e-05
-0.00020873674
-0.0002130901
0.00021498756
-1.6662981e-05
0.00014849211
-5.2703726e-05
6.0126195e-05
-8.354806e-05
-3.4155133e-05
-0.00010125675
-0.00010323283
0.00017889753
0.00011761468
4.2405096e-05
-3.6122136e-05
)
;

boundaryField
{
    movingWall
    {
        type            calculated;
        value           uniform 0;
    }
    CPLReceiveMD
    {
        type            calculated;
        value           nonuniform 0();
    }
    streamwiseIn
    {
        type            cyclic;
        value           nonuniform 0();
    }
    streamwiseOut
    {
        type            cyclic;
        value           nonuniform 0();
    }
    front
    {
        type            cyclic;
        value           nonuniform 0();
    }
    back
    {
        type            cyclic;
        value           nonuniform 0();
    }
    procBoundary7to4
    {
        type            processor;
        value           nonuniform List<scalar> 
25
(
0.00015051113
0.00050442096
0.00079712505
0.00097401342
0.00098387342
0.00013961496
0.00048116674
0.00076532759
0.00093996631
0.00095593181
0.00012187906
0.00044874625
0.00072018565
0.00088894464
0.00090842738
0.00010299877
0.00041215752
0.00066726346
0.00082686373
0.00084989836
8.7382194e-05
0.00037434399
0.00060989479
0.00075962815
0.00079416452
)
;
    }
    procBoundary7to6
    {
        type            processor;
        value           nonuniform List<scalar> 
25
(
-0.00079419246
-0.00055462059
-0.00039776401
-0.00030006769
-0.00025106176
-0.00076535972
-0.00053339374
-0.00038321975
-0.00029143472
-0.00024590519
-0.00073362829
-0.00050947284
-0.00036556751
-0.00027891661
-0.00023691626
-0.00069844167
-0.00048396737
-0.00034710586
-0.0002656425
-0.00022660987
-0.0006621031
-0.00045995937
-0.00033070627
-0.00025394177
-0.00021667536
)
;
    }
    procBoundary7to8
    {
        type            processor;
        value           nonuniform List<scalar> 
25
(
-0.00041043157
-0.00028510675
-0.00020133904
-0.00014747476
-0.00012047096
-0.00038280739
-0.00026439966
-0.00018795697
-0.00014030178
-0.00011657587
-0.00035701752
-0.00024618582
-0.00017441689
-0.00012999831
-0.00010822107
-0.00033198095
-0.00023050357
-0.00016111079
-0.00011723149
-9.5734981e-05
-0.00030721208
-0.00021982523
-0.00015108678
-0.000103003
-7.7975993e-05
)
;
    }
    procBoundary7to16
    {
        type            processor;
        value           nonuniform List<scalar> 
25
(
-1.5907576e-06
-3.4718332e-05
-6.0196803e-05
-7.4529419e-05
-7.2231205e-05
3.3730525e-06
-1.4876895e-05
-2.9472589e-05
-3.923208e-05
-4.3498727e-05
6.0475584e-06
-5.4899953e-06
-1.4443447e-05
-2.0291966e-05
-2.3945796e-05
7.279468e-06
-9.1411293e-07
-7.3748405e-06
-1.1382135e-05
-1.1855751e-05
8.2687949e-06
1.4150053e-06
-4.5949723e-06
-8.0872487e-06
-5.227573e-06
)
;
    }
    procBoundary7to25throughfront
    {
        type            processorCyclic;
        value           nonuniform List<scalar> 
25
(
2.1191712e-05
9.8820124e-06
4.4289655e-06
3.6620593e-06
5.492857e-06
2.7511572e-05
1.6715964e-05
9.5660216e-06
6.3968445e-06
6.7347636e-06
2.698856e-05
1.8547172e-05
1.2659113e-05
9.4237457e-06
8.6963002e-06
2.1492677e-05
1.5747921e-05
1.2600922e-05
1.0715178e-05
1.0049807e-05
1.0019026e-05
7.3144592e-06
7.7450264e-06
8.9794596e-06
1.0503692e-05
)
;
    }
}


// ************************************************************************* //
