/*--------------------------------*- C++ -*----------------------------------*\
| =========                 |                                                 |
| \\      /  F ield         | OpenFOAM: The Open Source CFD Toolbox           |
|  \\    /   O peration     | Version:  3.0.1                                 |
|   \\  /    A nd           | Web:      www.OpenFOAM.org                      |
|    \\/     M anipulation  |                                                 |
\*---------------------------------------------------------------------------*/
FoamFile
{
    version     2.0;
    format      ascii;
    class       surfaceScalarField;
    location    "0.2";
    object      phi;
}
// * * * * * * * * * * * * * * * * * * * * * * * * * * * * * * * * * * * * * //

dimensions      [0 3 -1 0 0 0 0];

internalField   nonuniform List<scalar> 
300
(
-0.020883558
0.011999703
-0.0027525195
-0.0099770087
0.019592897
-0.0025782988
0.00093877894
0.02244691
-0.0017029026
0.010979559
0.021125584
-0.0011248587
0.015946173
-0.00092374681
-0.01329374
0.0061761676
-0.001047074
-0.0072148436
0.011096215
-0.0010642547
-0.00046989493
0.013407611
-0.00078903095
0.0058104656
0.013091574
-0.00055254091
0.010429614
-0.00043203224
-0.0083818753
0.0033504476
-0.00041778819
-0.0049400598
0.006429647
-0.00046053299
-0.00082013201
0.0080958632
-0.00036894847
0.0031469813
0.0081731441
-0.00026558614
0.0067766644
-0.00020809511
-0.0053090968
0.0019006824
-0.00017463355
-0.0032899475
0.0038234725
-0.00020204146
-0.00075689049
0.0049656086
-0.00016852563
0.0017479606
0.0051356892
-0.00012613459
0.0043698745
-0.00010239998
-0.0033904853
-9.7562864e-05
-0.0021561893
-0.00010066307
-0.00059191977
-9.7856789e-05
0.0009802134
-8.3326331e-05
-3.9519201e-05
-0.020714162
0.013708859
0.0033539883
-0.0091147309
0.021095918
0.004475014
0.0015200216
0.023335297
0.0041820071
0.011186048
0.021689715
0.0028441962
0.01644194
0.0012741694
-0.013313832
0.0068068335
0.0013797263
-0.0069434096
0.011697067
0.0020001153
-0.00023269115
0.013819745
0.0020390613
0.0059325773
0.013375086
0.0015771985
0.010654662
0.00087514343
-0.0084258187
0.0035945584
0.00064578139
-0.0048496436
0.0066874269
0.00096785547
-0.00071652743
0.0082935297
0.0010482094
0.0032054375
0.0083112349
0.00088049425
0.006882577
0.00055724706
-0.0053368288
0.0019779658
0.00032813235
-0.0032569573
0.0039245408
0.00050046457
-0.00071446677
0.0050345022
0.00056384222
0.0017722973
0.0051779229
0.00049769463
0.0044321085
0.00035109939
-0.0033934248
0.00018577269
-0.0021537965
0.00027481282
-0.00057750276
0.00030507439
0.0010241131
0.00027595954
0.00020184946
-0.019575202
0.011732103
0.0067172865
-0.0094384555
0.018591207
0.008733127
0.00018413028
0.021178345
0.0081449322
0.0096167509
0.02042736
0.0062010187
0.01605907
0.0037403361
-0.012689523
0.0060729302
0.0030123913
-0.0069140858
0.010656398
0.0041618578
-0.0006945684
0.012824936
0.0041695749
0.0052320147
0.012677619
0.0033858747
0.010339285
0.0021916491
-0.0081035052
0.0032771716
0.001434956
-0.0047721044
0.0062193718
0.0020663952
-0.00088454531
0.0078082359
0.0021823211
0.0028826781
0.0079278459
0.0018677042
0.0066765352
0.0012864223
-0.0051634206
0.0018358047
0.00073148963
-0.0031957038
0.0036970937
0.0010743168
-0.00078077416
0.0047751288
0.0011684625
0.0016257269
0.0049555507
0.0010332625
0.004282506
0.00074649777
-0.0033045215
0.00042129881
-0.0021237201
0.00059154677
-0.0006066358
0.00064428386
0.00095003345
0.00057758261
0.00041681402
-0.017562751
0.0080314427
0.0073409067
-0.010029822
0.014026991
0.0098335678
-0.001760766
0.017217042
0.0095654106
0.0071563249
0.017612572
0.0077389909
0.014505667
0.005113793
-0.011541794
0.0044973234
0.0035409458
-0.006908178
0.0085617721
0.0049769975
-0.0014796724
0.010838816
0.0051247873
0.004038103
0.011158149
0.004340578
0.0094322341
0.0029960631
-0.0074733086
0.0025746067
0.0017723811
-0.0046571065
0.0052276171
0.0025797835
-0.0011995934
0.0067944201
0.0027543725
0.0023014884
0.0070924216
0.0024138964
0.0061351569
0.0017318034
-0.0048213692
0.0015257719
0.00094447962
-0.0031018656
0.0032145138
0.0013758304
-0.00091607799
0.0042505854
0.001494394
0.0013388143
0.0044989791
0.0013400861
0.0039520186
0.00097708739
-0.0031343856
0.00054651866
-0.0020711663
0.0007688971
-0.00067350393
0.00083899048
0.00078918844
0.00075420089
0.00054690628
-0.015070459
0.0042327725
-0.01030599
0.0091734014
-0.0035891673
0.012790027
0.0045286627
0.014212532
0.01237716
-0.010106289
0.0027307212
-0.0067619029
0.0061669331
-0.0022661513
0.0084702123
0.0026932419
0.0092292379
0.0081623548
-0.0066660602
0.0017475984
-0.0044826842
0.004024515
-0.001540735
0.0055346299
0.0016192398
0.0060170871
0.0053776906
-0.004389844
0.0011292188
-0.0029828595
0.0026081319
-0.001070512
0.0035949183
0.0009757259
0.0039121409
0.0035205925
-0.0029123594
-0.0020008401
-0.0007582467
0.00058193819
)
;

boundaryField
{
    movingWall
    {
        type            calculated;
        value           nonuniform 0();
    }
    CPLReceiveMD
    {
        type            calculated;
        value           nonuniform 0();
    }
    streamwiseIn
    {
        type            cyclic;
        value           nonuniform 0();
    }
    streamwiseOut
    {
        type            cyclic;
        value           nonuniform 0();
    }
    front
    {
        type            cyclic;
        value           nonuniform 0();
    }
    back
    {
        type            cyclic;
        value           nonuniform 0();
    }
    procBoundary5to2
    {
        type            processor;
        value           nonuniform List<scalar> 
25
(
-0.024891637
-0.035409362
-0.037922187
-0.03435126
-0.02410521
-0.030466013
-0.039660805
-0.03979
-0.0353302
-0.025094717
-0.024453921
-0.032974105
-0.034747474
-0.03324844
-0.02519356
-0.014966626
-0.022696532
-0.026970174
-0.028090054
-0.022561299
-0.0064202797
-0.01259187
-0.018835702
-0.022392804
-0.018999737
)
;
    }
    procBoundary5to3throughstreamwiseOut
    {
        type            processorCyclic;
        value           nonuniform List<scalar> 
25
(
0.017535533
0.010298209
0.0062006664
0.0038023383
0.0023563178
0.017699827
0.010378708
0.0062303149
0.0038106012
0.0023708404
0.016373358
0.0096894159
0.0058632771
0.0036172498
0.0022817507
0.013826434
0.0083701937
0.0051657965
0.0032520758
0.0020958708
0.010847607
0.0067538336
0.0042963477
0.0027913814
0.0018649041
)
;
    }
    procBoundary5to4
    {
        type            processor;
        value           nonuniform List<scalar> 
25
(
0.029920914
0.017317666
0.01036743
0.0063825471
0.0039708869
0.031381748
0.017835606
0.010563207
0.0064488537
0.0040077528
0.028747308
0.016749674
0.010071473
0.0061971192
0.003868291
0.023767146
0.014523271
0.0090205624
0.0056706903
0.0035807342
0.018417568
0.01195378
0.0077536328
0.0050212108
0.0032120299
)
;
    }
    procBoundary5to8
    {
        type            processor;
        value           nonuniform List<scalar> 
25
(
0.001102657
0.00231859
0.0030440601
0.0031844219
0.0027831759
0.0011497462
0.0023687899
0.00309028
0.0032283118
0.002820507
0.0010613455
0.0022451689
0.0029565726
0.00311567
0.002745559
0.00087110049
0.0019814886
0.0026772934
0.0028736037
0.0025777052
0.00062696325
0.0016401225
0.002314753
0.0025580032
0.0023656171
)
;
    }
    procBoundary5to14
    {
        type            processor;
        value           nonuniform List<scalar> 
25
(
0.0062064023
0.0084775267
0.0088363084
0.0076720878
0.0052999997
0.0032847587
0.0046276124
0.0049313906
0.0043383853
0.0030805429
0.0017657407
0.0025251608
0.0027404322
0.0024529822
0.0017883821
0.00095671479
0.0013896957
0.0015302841
0.0013941751
0.0010487669
0.00048121583
0.00075263713
0.00085783367
0.00080658024
0.00064625452
)
;
    }
    procBoundary5to23throughfront
    {
        type            processorCyclic;
        value           nonuniform List<scalar> 
25
(
0.0068205373
0.0029695977
0.0013839357
0.00069316446
0.00033526786
0.0075775072
0.00351515
0.0016977707
0.00086407941
0.00044838412
0.0061243765
0.0031139348
0.0016076805
0.00084929032
0.00045275063
0.0042176206
0.0023258488
0.0012916969
0.00071493261
0.0003823659
0.002480026
0.0014790341
0.00089314208
0.00053444479
0.00028863519
)
;
    }
}


// ************************************************************************* //
