/*--------------------------------*- C++ -*----------------------------------*\
| =========                 |                                                 |
| \\      /  F ield         | OpenFOAM: The Open Source CFD Toolbox           |
|  \\    /   O peration     | Version:  3.0.1                                 |
|   \\  /    A nd           | Web:      www.OpenFOAM.org                      |
|    \\/     M anipulation  |                                                 |
\*---------------------------------------------------------------------------*/
FoamFile
{
    version     2.0;
    format      ascii;
    class       volVectorField;
    location    "0.2";
    object      U;
}
// * * * * * * * * * * * * * * * * * * * * * * * * * * * * * * * * * * * * * //

dimensions      [0 1 -1 0 0 0 0];

internalField   nonuniform List<vector> 
125
(
(-6.3518482e-05 4.6251467e-05 -1.1974012e-05)
(-3.8694664e-05 6.8948026e-05 -1.269102e-05)
(-1.1486379e-05 7.5441914e-05 -9.7808751e-06)
(1.4800876e-05 6.9117833e-05 -6.6751435e-06)
(3.5724312e-05 4.9918831e-05 -4.2525539e-06)
(-3.8281814e-05 2.2794181e-05 -5.0238119e-06)
(-2.569307e-05 3.8432217e-05 -5.7237123e-06)
(-9.6836267e-06 4.4807696e-05 -4.8774502e-06)
(6.6316921e-06 4.2683012e-05 -3.596202e-06)
(2.0137922e-05 3.2892347e-05 -2.3881387e-06)
(-2.3447794e-05 1.1944667e-05 -2.2533668e-06)
(-1.6681154e-05 2.1935788e-05 -2.6981953e-06)
(-7.2355875e-06 2.6873908e-05 -2.4704078e-06)
(2.8855244e-06 2.6543183e-05 -1.9455826e-06)
(1.167944e-05 2.146825e-05 -1.3753599e-06)
(-1.4621522e-05 6.5821999e-06 -1.0867424e-06)
(-1.076383e-05 1.2827812e-05 -1.3328755e-06)
(-5.0762329e-06 1.6321456e-05 -1.2720082e-06)
(1.2260326e-06 1.6618817e-05 -1.0505436e-06)
(6.9337027e-06 1.3914324e-05 -7.9524978e-07)
(-9.2061509e-06 3.7635637e-06 -5.4100277e-07)
(-6.9418982e-06 7.6827562e-06 -6.8589115e-07)
(-3.4445827e-06 1.0008423e-05 -6.8788566e-07)
(4.7839267e-07 1.039138e-05 -5.8153931e-07)
(4.1677944e-06 8.9310496e-06 -4.0983881e-07)
(-6.5106316e-05 5.5341308e-05 7.5452065e-07)
(-3.7381149e-05 7.6177573e-05 2.4066153e-06)
(-9.6746042e-06 7.9015568e-05 3.1019186e-06)
(1.577188e-05 7.1085378e-05 2.1475571e-06)
(3.6137717e-05 5.174659e-05 4.2930401e-07)
(-3.8948279e-05 2.5712076e-05 4.1554497e-07)
(-2.536952e-05 4.107453e-05 1.1790316e-06)
(-9.0447527e-06 4.6473571e-05 1.5634985e-06)
(7.0772507e-06 4.3757737e-05 1.2807933e-06)
(2.038349e-05 3.3789575e-05 5.5329709e-07)
(-2.3745532e-05 1.3035508e-05 2.8450374e-07)
(-1.6619658e-05 2.3012694e-05 6.3592721e-07)
(-6.9914001e-06 2.7649017e-05 8.4942455e-07)
(3.0878807e-06 2.7076529e-05 7.689877e-07)
(1.1788621e-05 2.188136e-05 4.3763455e-07)
(-1.4738307e-05 6.982903e-06 1.9160175e-07)
(-1.0756012e-05 1.3278406e-05 3.7493493e-07)
(-4.9809187e-06 1.6660592e-05 4.9433002e-07)
(1.3095921e-06 1.6846462e-05 4.6479874e-07)
(6.9741052e-06 1.4123838e-05 3.1172104e-07)
(-9.255437e-06 3.9185667e-06 1.1010548e-07)
(-6.9419699e-06 7.8728511e-06 2.1805892e-07)
(-3.4233448e-06 1.0155452e-05 2.5924948e-07)
(5.5112684e-07 1.0500336e-05 2.4088582e-07)
(4.2406442e-06 9.0562558e-06 2.0310151e-07)
(-6.0342082e-05 4.5373952e-05 1.2591734e-05)
(-3.6347267e-05 6.4784069e-05 1.6538969e-05)
(-1.1745438e-05 7.0131393e-05 1.5407647e-05)
(1.2128261e-05 6.6860328e-05 1.1306174e-05)
(3.2500365e-05 5.129092e-05 6.2617921e-06)
(-3.6804217e-05 2.2324164e-05 5.4906127e-06)
(-2.4545116e-05 3.6661528e-05 7.7112782e-06)
(-9.5818651e-06 4.2555201e-05 7.7617314e-06)
(5.6214906e-06 4.1304442e-05 6.2043955e-06)
(1.8642134e-05 3.2900678e-05 3.833547e-06)
(-2.2726117e-05 1.1720724e-05 2.6010735e-06)
(-1.6116233e-05 2.1131691e-05 3.7951674e-06)
(-7.102527e-06 2.580474e-05 4.0388902e-06)
(2.4737344e-06 2.5727188e-05 3.4356832e-06)
(1.0925436e-05 2.1226674e-05 2.3048197e-06)
(-1.4205875e-05 6.4078016e-06 1.3245609e-06)
(-1.0461102e-05 1.2409944e-05 1.970732e-06)
(-4.9863691e-06 1.5731281e-05 2.1658773e-06)
(1.0434237e-06 1.6090716e-05 1.9140526e-06)
(6.5487732e-06 1.3679791e-05 1.3722975e-06)
(-8.9695383e-06 3.6294857e-06 7.5876657e-07)
(-6.7927542e-06 7.4339362e-06 1.0829606e-06)
(-3.4217558e-06 9.6648771e-06 1.1869202e-06)
(4.2224469e-07 1.0082892e-05 1.0672436e-06)
(4.0366534e-06 8.7767657e-06 7.7374904e-07)
(-5.1533599e-05 2.8870966e-05 1.757347e-05)
(-3.4565238e-05 4.6185607e-05 2.3206082e-05)
(-1.4907401e-05 5.5350227e-05 2.212943e-05)
(6.6260236e-06 5.689749e-05 1.74269e-05)
(2.6231571e-05 4.6099143e-05 1.107292e-05)
(-3.2581102e-05 1.5721415e-05 8.1913127e-06)
(-2.3098402e-05 2.8330727e-05 1.1423689e-05)
(-1.0551636e-05 3.5104814e-05 1.1618665e-05)
(3.1490658e-06 3.5887247e-05 9.6596246e-06)
(1.5499397e-05 2.9832602e-05 6.4876796e-06)
(-2.0622878e-05 8.8694563e-06 4.0077655e-06)
(-1.5181842e-05 1.7272148e-05 5.8079468e-06)
(-7.3508845e-06 2.2053163e-05 6.1715818e-06)
(1.35381e-06 2.2786186e-05 5.3530875e-06)
(9.3267649e-06 1.942011e-05 3.7744583e-06)
(-1.3119127e-05 5.140596e-06 2.0929504e-06)
(-9.9146957e-06 1.0566199e-05 3.0624582e-06)
(-5.0375982e-06 1.3808622e-05 3.3290287e-06)
(5.1601226e-07 1.4478022e-05 2.9674632e-06)
(5.7336413e-06 1.2592768e-05 2.1557267e-06)
(-8.397047e-06 3.0033881e-06 1.2091715e-06)
(-6.5138163e-06 6.5005663e-06 1.7001085e-06)
(-3.4390618e-06 8.660538e-06 1.8544356e-06)
(1.3795571e-07 9.2110187e-06 1.6655549e-06)
(3.6032142e-06 8.1551786e-06 1.2057783e-06)
(-4.169058e-05 1.3443989e-05 1.6931446e-05)
(-3.1791308e-05 2.7495254e-05 2.2886859e-05)
(-1.7524622e-05 3.9575581e-05 2.300394e-05)
(1.0717488e-06 4.5477135e-05 1.9273589e-05)
(1.9219434e-05 3.9038528e-05 1.3031834e-05)
(-2.7573885e-05 8.7584596e-06 8.5311757e-06)
(-2.1117764e-05 1.9263393e-05 1.2005134e-05)
(-1.134593e-05 2.6597352e-05 1.2573615e-05)
(4.9050416e-07 2.923063e-05 1.0852998e-05)
(1.179909e-05 2.5602216e-05 7.602637e-06)
(-1.8028395e-05 5.6223615e-06 4.4213006e-06)
(-1.3952417e-05 1.277046e-05 6.3812494e-06)
(-7.5573866e-06 1.7515103e-05 6.8709666e-06)
(7.6610699e-08 1.9035027e-05 6.08592e-06)
(7.3876244e-06 1.6894721e-05 4.4034179e-06)
(-1.1767192e-05 3.6092075e-06 2.3748379e-06)
(-9.2250235e-06 8.3021056e-06 3.4567224e-06)
(-5.0813642e-06 1.1414134e-05 3.7831025e-06)
(-1.2987833e-07 1.2403183e-05 3.4191044e-06)
(4.7041368e-06 1.1111111e-05 2.5338304e-06)
(-7.658328e-06 2.2022367e-06 1.2840039e-06)
(-6.1474901e-06 5.3153546e-06 1.9014531e-06)
(-3.4563095e-06 7.3888915e-06 2.1217494e-06)
(-2.2641261e-07 8.0846647e-06 1.9518551e-06)
(3.0554409e-06 7.352395e-06 1.4925491e-06)
)
;

boundaryField
{
    movingWall
    {
        type            fixedValue;
        value           nonuniform 0();
    }
    CPLReceiveMD
    {
        type            fixedValue;
        value           nonuniform 0();
    }
    streamwiseIn
    {
        type            cyclic;
    }
    streamwiseOut
    {
        type            cyclic;
    }
    front
    {
        type            cyclic;
    }
    back
    {
        type            cyclic;
    }
    procBoundary5to2
    {
        type            processor;
        value           nonuniform List<vector> 
25
(
(-0.00010653278 0.00010118516 -3.1255448e-05)
(-5.4883505e-05 0.0001258504 -2.9704479e-05)
(-9.8534227e-06 0.00012686965 -2.0131192e-05)
(3.2154785e-05 0.00011268246 -1.2543342e-05)
(6.5074184e-05 7.402342e-05 -7.7268941e-06)
(-0.00011077013 0.00013470747 1.2930601e-06)
(-4.9043769e-05 0.00014837088 5.3429872e-06)
(-3.9525456e-06 0.00013498664 6.8740182e-06)
(3.4346239e-05 0.00011550391 3.5382976e-06)
(6.5488085e-05 7.7884923e-05 -8.1879226e-07)
(-9.9625182e-05 9.9886192e-05 3.1960951e-05)
(-4.9302549e-05 0.00011508986 3.770324e-05)
(-1.1658114e-05 0.00011306243 3.142707e-05)
(2.4461973e-05 0.00010963671 2.0392283e-05)
(5.7833843e-05 8.1731319e-05 9.480994e-06)
(-8.0795832e-05 5.5431755e-05 4.0121272e-05)
(-4.9577656e-05 7.274165e-05 4.87125e-05)
(-2.1263511e-05 8.4637961e-05 4.2174475e-05)
(1.2400156e-05 9.1165867e-05 3.1042818e-05)
(4.5333261e-05 7.2114956e-05 1.8740072e-05)
(-6.1017597e-05 1.9814787e-05 3.4624901e-05)
(-4.7249352e-05 3.3123295e-05 4.3989278e-05)
(-2.9327806e-05 5.6349078e-05 4.1829755e-05)
(1.0275613e-06 7.3293459e-05 3.4127787e-05)
(3.2567413e-05 6.0340372e-05 2.2378299e-05)
)
;
    }
    procBoundary5to3throughstreamwiseOut
    {
        type            processorCyclic;
        value           nonuniform List<vector> 
25
(
(4.6427335e-05 2.418158e-05 -2.2775476e-06)
(2.8281059e-05 1.8638142e-05 -1.2458712e-06)
(1.7519434e-05 1.3338964e-05 -6.7083262e-07)
(1.09914e-05 9.1071721e-06 -3.6113376e-07)
(6.9856612e-06 6.024725e-06 -1.6673697e-07)
(4.67607e-05 2.598079e-05 -1.0763901e-06)
(2.8561064e-05 1.9408645e-05 -2.1499456e-07)
(1.7691431e-05 1.3667146e-05 1.4983234e-08)
(1.1080205e-05 9.298485e-06 7.9869249e-08)
(7.052228e-06 6.1614022e-06 1.0974486e-07)
(4.383179e-05 2.7668627e-05 1.4000295e-06)
(2.6990682e-05 1.9729516e-05 1.3203033e-06)
(1.6841876e-05 1.3633828e-05 9.7382679e-07)
(1.0616535e-05 9.2019337e-06 6.7358864e-07)
(6.8073606e-06 6.0547037e-06 4.2981358e-07)
(3.8017302e-05 2.7063632e-05 4.1459701e-06)
(2.3855298e-05 1.8982442e-05 2.8165806e-06)
(1.5126227e-05 1.3020431e-05 1.8152764e-06)
(9.6761426e-06 8.7544717e-06 1.1228267e-06)
(6.3000251e-06 5.7343103e-06 6.8434232e-07)
(3.1096869e-05 2.4708816e-05 5.8620871e-06)
(1.9948191e-05 1.7398822e-05 3.6847225e-06)
(1.2944544e-05 1.1940074e-05 2.2431364e-06)
(8.4820942e-06 8.0709996e-06 1.3044009e-06)
(5.6600541e-06 5.2920952e-06 7.3151092e-07)
)
;
    }
    procBoundary5to4
    {
        type            processor;
        value           nonuniform List<vector> 
25
(
(-7.4843959e-05 6.9704517e-07 -4.9966267e-06)
(-4.2655416e-05 -1.6384755e-06 -2.1551527e-06)
(-2.5319225e-05 -1.7245054e-06 -9.6421421e-07)
(-1.5492583e-05 -1.4138311e-06 -4.4885569e-07)
(-9.6817948e-06 -1.0140564e-06 -2.8661249e-07)
(-7.9743407e-05 4.355708e-06 -7.6978547e-07)
(-4.4396617e-05 -2.8625823e-07 -2.9856524e-07)
(-2.5995672e-05 -1.1972793e-06 -8.5749358e-08)
(-1.5770012e-05 -1.211689e-06 -4.0711893e-08)
(-9.8183894e-06 -9.3397751e-07 -1.8553672e-08)
(-7.3064534e-05 1.9630953e-06 2.9662512e-06)
(-4.1707152e-05 -9.5443943e-07 1.3441011e-06)
(-2.4775029e-05 -1.466652e-06 6.7251346e-07)
(-1.5166913e-05 -1.3466354e-06 3.5155182e-07)
(-9.4902784e-06 -9.7820318e-07 2.2457057e-07)
(-5.966881e-05 -2.0291291e-06 4.554578e-06)
(-3.5897313e-05 -2.5799962e-06 2.1933557e-06)
(-2.2086518e-05 -2.1898287e-06 1.1102241e-06)
(-1.3838133e-05 -1.6596319e-06 6.237748e-07)
(-8.7706613e-06 -1.102941e-06 3.888981e-07)
(-4.5181277e-05 -5.9484615e-06 4.6485505e-06)
(-2.910909e-05 -4.3987936e-06 2.3655141e-06)
(-1.877107e-05 -3.036233e-06 1.2670466e-06)
(-1.2132017e-05 -2.0679614e-06 7.5752717e-07)
(-7.8311369e-06 -1.301782e-06 5.3094537e-07)
)
;
    }
    procBoundary5to8
    {
        type            processor;
        value           nonuniform List<vector> 
25
(
(-5.9247096e-06 2.2475022e-06 -3.1979825e-07)
(-4.5189708e-06 4.6861836e-06 -3.6588185e-07)
(-2.3676089e-06 6.150342e-06 -3.8444015e-07)
(1.4865908e-07 6.4429187e-06 -3.3331529e-07)
(2.5670472e-06 5.6304054e-06 -1.8592536e-07)
(-5.9314786e-06 2.3474566e-06 5.7523732e-08)
(-4.5191265e-06 4.7761553e-06 1.2611488e-07)
(-2.3534335e-06 6.2396138e-06 1.507841e-07)
(2.1039533e-07 6.5355709e-06 1.5631065e-07)
(2.6351709e-06 5.7020944e-06 1.5743722e-07)
(-5.7937361e-06 2.1899241e-06 4.0938225e-07)
(-4.4257105e-06 4.542397e-06 5.9844727e-07)
(-2.3374131e-06 5.9831283e-06 6.7096293e-07)
(1.553122e-07 6.3149823e-06 6.247349e-07)
(2.5205845e-06 5.5540471e-06 4.7122039e-07)
(-5.5156197e-06 1.8248951e-06 6.6570147e-07)
(-4.2575459e-06 4.0378153e-06 9.4387664e-07)
(-2.3271459e-06 5.4400454e-06 1.0530431e-06)
(1.0652788e-08 5.8364723e-06 9.6923558e-07)
(2.2569328e-06 5.2219602e-06 7.3135602e-07)
(-5.1500554e-06 1.3514295e-06 8.4579232e-07)
(-4.0383688e-06 3.3829701e-06 1.1134833e-06)
(-2.3120542e-06 4.7345235e-06 1.2073004e-06)
(-1.6637488e-07 5.2110576e-06 1.0885595e-06)
(1.9115672e-06 4.7897047e-06 7.8309748e-07)
)
;
    }
    procBoundary5to14
    {
        type            processor;
        value           nonuniform List<vector> 
25
(
(-3.3295291e-05 2.777238e-06 1.3363328e-05)
(-2.8492746e-05 1.420146e-05 1.8360645e-05)
(-1.8520675e-05 2.6094086e-05 1.9518743e-05)
(-3.3460838e-06 3.3622701e-05 1.7311421e-05)
(1.2820068e-05 3.1323481e-05 1.2114333e-05)
(-2.2941483e-05 3.2112689e-06 7.2841274e-06)
(-1.9055963e-05 1.1825116e-05 1.0273406e-05)
(-1.1703773e-05 1.897184e-05 1.1054305e-05)
(-1.8219129e-06 2.2699578e-05 9.8492451e-06)
(8.3311213e-06 2.1204186e-05 7.0704844e-06)
(-1.5508675e-05 2.7131184e-06 4.0150073e-06)
(-1.2732176e-05 8.7237357e-06 5.7136362e-06)
(-7.6462141e-06 1.326265e-05 6.227546e-06)
(-1.1137389e-06 1.5352293e-05 5.6039756e-06)
(5.4839812e-06 1.4351304e-05 4.0942438e-06)
(-1.0419932e-05 2.0032992e-06 2.227428e-06)
(-8.5064311e-06 6.086403e-06 3.1893673e-06)
(-5.0752162e-06 9.0594044e-06 3.5083745e-06)
(-7.3325993e-07 1.0343957e-05 3.1911381e-06)
(3.6189377e-06 9.6818988e-06 2.3809307e-06)
(-7.0265393e-06 1.4743425e-06 1.1949926e-06)
(-5.6760708e-06 4.1573272e-06 1.7729818e-06)
(-3.3886599e-06 6.0847359e-06 1.9829801e-06)
(-4.9124459e-07 6.8804738e-06 1.8400338e-06)
(2.3828701e-06 6.4044457e-06 1.4328767e-06)
)
;
    }
    procBoundary5to23throughfront
    {
        type            processorCyclic;
        value           nonuniform List<vector> 
25
(
(-5.7411922e-05 2.9109668e-05 -1.843988e-05)
(-3.537972e-05 1.599143e-05 -8.3770509e-06)
(-2.2011551e-05 9.0984387e-06 -4.0293209e-06)
(-1.3854287e-05 5.270539e-06 -2.0389084e-06)
(-8.8561583e-06 3.1516225e-06 -1.0447728e-06)
(-3.9574287e-05 5.2196805e-05 -2.115028e-05)
(-2.5515882e-05 3.1081704e-05 -1.0188019e-05)
(-1.6402617e-05 1.8621857e-05 -5.0963395e-06)
(-1.0570746e-05 1.1266102e-05 -2.6525222e-06)
(-6.795087e-06 6.9058574e-06 -1.4075669e-06)
(-1.5690482e-05 6.3761827e-05 -1.7662218e-05)
(-1.1172263e-05 3.9163103e-05 -9.294975e-06)
(-7.7440129e-06 2.4043575e-05 -4.9544198e-06)
(-5.2632507e-06 1.487807e-05 -2.6834543e-06)
(-3.5276967e-06 9.2678844e-06 -1.4528935e-06)
(1.0243558e-05 6.2138239e-05 -1.2241503e-05)
(4.5879391e-06 3.9028177e-05 -7.0410032e-06)
(1.9928327e-06 2.4530871e-05 -4.0086244e-06)
(8.328337e-07 1.5482419e-05 -2.262579e-06)
(2.7307998e-07 9.7831082e-06 -1.2503309e-06)
(3.174012e-05 4.6407836e-05 -7.0042951e-06)
(1.8033159e-05 3.0912381e-05 -4.3919331e-06)
(1.0513871e-05 2.0288471e-05 -2.6728497e-06)
(6.2846954e-06 1.3158317e-05 -1.5836682e-06)
(3.8258419e-06 8.4469313e-06 -9.1053475e-07)
)
;
    }
}


// ************************************************************************* //
