/*--------------------------------*- C++ -*----------------------------------*\
| =========                 |                                                 |
| \\      /  F ield         | OpenFOAM: The Open Source CFD Toolbox           |
|  \\    /   O peration     | Version:  3.0.1                                 |
|   \\  /    A nd           | Web:      www.OpenFOAM.org                      |
|    \\/     M anipulation  |                                                 |
\*---------------------------------------------------------------------------*/
FoamFile
{
    version     2.0;
    format      ascii;
    class       surfaceScalarField;
    location    "0.2";
    object      phi;
}
// * * * * * * * * * * * * * * * * * * * * * * * * * * * * * * * * * * * * * //

dimensions      [0 3 -1 0 0 0 0];

internalField   nonuniform List<scalar> 
300
(
0.00016239593
-0.0014595056
-0.00037693866
-0.00061767856
-0.0015255115
-0.00033777767
-0.0013037802
-0.0013295395
-0.0002273852
-0.0017834637
-0.00089788961
-6.3769203e-05
-0.00031026408
0.00011922049
9.7041864e-05
-0.00096737373
-0.00020649898
-0.00042110126
-0.00099456736
-0.00018002916
-0.00087158016
-0.00085436361
-0.00011573441
-0.0011953351
-0.00056586782
-2.3737565e-05
-0.00017690651
8.2276673e-05
7.0168464e-05
-0.00059032885
-0.00010617263
-0.00028053993
-0.00058900839
-8.7850244e-05
-0.00058274617
-0.00049474733
-5.1290085e-05
-0.00080624759
-0.00031909846
-1.7861431e-06
-8.3201317e-05
5.7063201e-05
7.1647754e-05
-0.00027757203
-5.0298863e-05
-0.00018601201
-0.00026594349
-4.1653343e-05
-0.00040693966
-0.00021967068
-2.4017182e-05
-0.00057050506
-0.00013940554
4.8035684e-07
-2.8476961e-05
2.8645021e-05
8.319602e-05
-2.3782078e-05
-0.00013967685
-2.5324729e-05
-0.00032659063
-1.6936234e-05
-0.00045966515
-3.2803173e-06
5.8849512e-06
0.00020215702
-0.0012890875
-0.00027300078
-0.0005075971
-0.0013682101
-0.00024082408
-0.0011402006
-0.0012176802
-0.00016208625
-0.0016007052
-0.00085756306
-4.6811732e-05
-0.00034685482
8.7005835e-05
0.00012344451
-0.00086825253
-0.00014747439
-0.00035647221
-0.00090313437
-0.00012677362
-0.00077952596
-0.00078996494
-8.0990108e-05
-0.00108954
-0.00054388971
-1.5469039e-05
-0.00020208181
6.4466226e-05
8.8797395e-05
-0.00053439695
-7.572384e-05
-0.00024296825
-0.00054222115
-6.2683366e-05
-0.00053317484
-0.00046738177
-3.6753137e-05
-0.00074718436
-0.00031673844
8.1839711e-07
-0.00011165398
4.691796e-05
8.1126605e-05
-0.00025129215
-3.7768153e-05
-0.00016791882
-0.00024951221
-3.1917974e-05
-0.00038239745
-0.00021242496
-1.6970554e-05
-0.00054195713
-0.00014241244
5.1733176e-06
-5.0605824e-05
2.7028777e-05
8.2864124e-05
-2.3262488e-05
-0.00013078635
-2.0219032e-05
-0.00031224325
-8.3083618e-06
-0.00045029344
6.4282553e-06
1.5107784e-05
0.00023437175
-0.0011632619
-0.00013449246
-0.00042890573
-0.0012540431
-0.00011331532
-0.001025489
-0.0011364162
-7.263246e-05
-0.0014664585
-0.00082553315
-1.4808052e-05
-0.00036963948
5.1823787e-05
0.00014409963
-0.00079645619
-7.1154261e-05
-0.00031069898
-0.00083899408
-5.8212307e-05
-0.00071405963
-0.00074569826
-3.5197092e-05
-0.001010208
-0.00052751118
-6.9111142e-07
-0.0002199268
4.021645e-05
0.00010172674
-0.00049642419
-3.685553e-05
-0.00021706738
-0.00051145146
-2.8538262e-05
-0.00049562615
-0.00044761387
-1.2629666e-05
-0.00070209587
-0.00031238688
9.8176911e-06
-0.00013070974
3.2642333e-05
8.6820969e-05
-0.000236763
-2.0008458e-05
-0.00015302471
-0.00023782838
-1.213312e-05
-0.00036027204
-0.00020378949
2.1319409e-06
-0.00052007677
-0.00014118868
1.7078077e-05
-6.2535533e-05
2.6907323e-05
8.5714571e-05
-1.428601e-05
-0.00011893833
-3.5996623e-06
-0.00029751231
1.0607289e-05
-0.000441353
2.1055584e-05
2.5349002e-05
0.00025537498
-0.0011003552
1.9022309e-05
-0.00038829302
-0.0011989708
2.3359446e-05
-0.00096774107
-0.0010989621
2.3772685e-05
-0.0013997387
-0.00081141925
2.4318905e-05
-0.00038136072
2.0210186e-05
0.0001570823
-0.00076222251
8.6199441e-06
-0.0002876893
-0.00080936334
9.2524898e-06
-0.00067957074
-0.00072316701
1.1036612e-05
-0.00096941897
-0.00051705114
1.44257e-05
-0.00022756559
1.3370817e-05
0.00011009767
-0.0004795572
3.4646959e-06
-0.00020114856
-0.00049506596
8.0828932e-06
-0.00047318656
-0.00043290192
1.5085137e-05
-0.00067961521
-0.00030515307
2.0342975e-05
-0.00013634199
2.0630353e-05
9.4661839e-05
-0.00023091875
4.7984648e-07
-0.00013877782
-0.00022926772
1.2197125e-05
-0.00034532187
-0.00019531222
2.3542253e-05
-0.00051022408
-0.0001371501
2.9250748e-05
-6.3869041e-05
3.0841253e-05
9.618841e-05
-2.6534131e-07
-0.00010477959
1.6016573e-05
-0.00028704326
2.8610679e-05
-0.0004365102
3.3866891e-05
3.9365556e-05
0.00025965236
-0.0011098779
-0.00038769127
-0.0012131237
-0.00096726174
-0.0011119744
-0.0014040195
-0.00082157623
-0.0003882654
0.00015688985
-0.0007670901
-0.0002860155
-0.00081046486
-0.00067611249
-0.00071920689
-0.000970254
-0.00051140605
-0.00022070864
0.00011374716
-0.00048376813
-0.00019440941
-0.00049105033
-0.00046795449
-0.00042451384
-0.00067942721
-0.00029650587
-0.00012660362
0.00010643676
-0.00023299864
-0.00012764981
-0.00022577805
-0.00033985928
-0.00019038827
-0.00050869391
-0.0001325835
-6.0139743e-05
0.00011332397
-9.2253097e-05
-0.00028196675
-0.00043504126
)
;

boundaryField
{
    movingWall
    {
        type            calculated;
        value           uniform 0;
    }
    CPLReceiveMD
    {
        type            calculated;
        value           nonuniform 0();
    }
    streamwiseIn
    {
        type            cyclic;
        value           nonuniform 0();
    }
    streamwiseOut
    {
        type            cyclic;
        value           nonuniform 0();
    }
    front
    {
        type            cyclic;
        value           nonuniform 0();
    }
    back
    {
        type            cyclic;
        value           nonuniform 0();
    }
    procBoundary16to7
    {
        type            processor;
        value           nonuniform List<scalar> 
25
(
0.00044833536
0.00041272404
0.00030409148
0.00013457817
-4.8026322e-05
0.00025296517
0.00022582835
0.00015870472
6.0066033e-05
-3.4563373e-05
0.00014784215
0.00013141188
8.9182432e-05
2.6089381e-05
-3.4394467e-05
9.4771857e-05
8.5565699e-05
5.6676104e-05
1.1392765e-05
-3.7653275e-05
7.3822685e-05
6.7838588e-05
4.430541e-05
6.2312217e-06
-3.9154411e-05
)
;
    }
    procBoundary16to13
    {
        type            processor;
        value           nonuniform List<scalar> 
25
(
0.0021594274
0.0022926121
0.0020395096
0.0014244647
0.00056597044
0.0018469955
0.0019892283
0.0018034059
0.0013058637
0.00058713424
0.0016441585
0.001790062
0.0016544804
0.0012425019
0.00061236356
0.0015695987
0.0017121283
0.0016011448
0.0012292315
0.0006336105
0.001625044
0.0017687381
0.0016502487
0.0012610971
0.00062970375
)
;
    }
    procBoundary16to15
    {
        type            processor;
        value           nonuniform List<scalar> 
25
(
-0.00090244962
-0.00060284514
-0.00041846621
-0.00031738116
-0.000274181
-0.00088561598
-0.00059944118
-0.00041961259
-0.00031880577
-0.00027481496
-0.00086101632
-0.00059350604
-0.00042061894
-0.00032163797
-0.0002780083
-0.00083306582
-0.0005842672
-0.00042035966
-0.00032536042
-0.00028368155
-0.00080738216
-0.00056581263
-0.00041326144
-0.00032605556
-0.0002862931
)
;
    }
    procBoundary16to17
    {
        type            processor;
        value           nonuniform List<scalar> 
25
(
-0.0018914509
-0.0012854352
-0.00090536561
-0.00068640111
-0.00058867867
-0.0017712898
-0.0012195146
-0.00086323549
-0.00065280431
-0.00055955793
-0.0016742536
-0.0011664436
-0.00083353841
-0.00063557579
-0.00054765522
-0.0016329189
-0.0011439868
-0.00082518439
-0.00063532976
-0.00055043109
-0.0016701612
-0.00116517
-0.00084483535
-0.00065615131
-0.00056957182
)
;
    }
    procBoundary16to25
    {
        type            processor;
        value           nonuniform List<scalar> 
25
(
0.00023864799
0.00020915645
0.00015160863
6.519448e-05
-5.1119731e-05
0.000139727
0.00012162843
8.7335445e-05
3.2209298e-05
-4.0365606e-05
8.1919355e-05
7.5689869e-05
5.3741666e-05
1.5963155e-05
-3.3201946e-05
5.4421876e-05
5.5264507e-05
4.0493625e-05
1.4449803e-05
-1.9390541e-05
4.3259879e-05
4.6115753e-05
3.5345442e-05
1.5886951e-05
-8.3896284e-06
)
;
    }
}


// ************************************************************************* //
