/*--------------------------------*- C++ -*----------------------------------*\
| =========                 |                                                 |
| \\      /  F ield         | OpenFOAM: The Open Source CFD Toolbox           |
|  \\    /   O peration     | Version:  3.0.1                                 |
|   \\  /    A nd           | Web:      www.OpenFOAM.org                      |
|    \\/     M anipulation  |                                                 |
\*---------------------------------------------------------------------------*/
FoamFile
{
    version     2.0;
    format      ascii;
    class       volVectorField;
    location    "0.2";
    object      U;
}
// * * * * * * * * * * * * * * * * * * * * * * * * * * * * * * * * * * * * * //

dimensions      [0 1 -1 0 0 0 0];

internalField   nonuniform List<vector> 
125
(
(1.3334028e-06 -4.5233725e-06 -1.0360009e-06)
(-5.6685815e-07 -4.7716697e-06 -9.3866351e-07)
(-2.3996124e-06 -4.2097283e-06 -6.6554181e-07)
(-3.8581299e-06 -2.900864e-06 -2.4944773e-07)
(-4.5939675e-06 -1.0927186e-06 2.0810109e-07)
(8.7643977e-07 -3.0331532e-06 -5.7547942e-07)
(-4.0349113e-07 -3.1490367e-06 -5.0792493e-07)
(-1.6143817e-06 -2.7282873e-06 -3.4332721e-07)
(-2.5838754e-06 -1.82772e-06 -1.0521826e-07)
(-3.1018804e-06 -6.0698694e-07 1.4514159e-07)
(6.1196819e-07 -1.946925e-06 -3.193806e-07)
(-2.6199219e-07 -1.9790378e-06 -2.754208e-07)
(-1.0782956e-06 -1.6858094e-06 -1.7570113e-07)
(-1.7368296e-06 -1.1055212e-06 -3.4883226e-08)
(-2.1405755e-06 -3.2434142e-07 1.1428356e-07)
(4.87289e-07 -1.0849169e-06 -1.8305861e-07)
(-1.4237558e-07 -1.0685904e-06 -1.592948e-07)
(-7.4086516e-07 -8.9286472e-07 -1.0063743e-07)
(-1.2224074e-06 -5.7294936e-07 -1.2924876e-08)
(-1.5725261e-06 -1.3938005e-07 8.4486588e-08)
(4.4763097e-07 -3.4694784e-07 -1.2386716e-07)
(-7.0237187e-08 -3.3238517e-07 -1.1578154e-07)
(-5.8269701e-07 -2.7455156e-07 -7.5787314e-08)
(-9.8313118e-07 -1.7422298e-07 -9.8733239e-09)
(-1.3126825e-06 -3.5544966e-08 6.4306728e-08)
(1.3622991e-06 -3.9198466e-06 -8.1222824e-07)
(-3.797475e-07 -4.1962209e-06 -7.2260889e-07)
(-2.0575801e-06 -3.7752405e-06 -4.8659387e-07)
(-3.4250971e-06 -2.7025242e-06 -1.3882626e-07)
(-4.2155641e-06 -1.1649414e-06 2.5767195e-07)
(9.0532186e-07 -2.6966419e-06 -4.4261197e-07)
(-2.8973935e-07 -2.8385859e-06 -3.8380815e-07)
(-1.4186766e-06 -2.5085367e-06 -2.4589746e-07)
(-2.336226e-06 -1.7504409e-06 -4.9119131e-08)
(-2.8870254e-06 -6.8474404e-07 1.8290342e-07)
(6.3679932e-07 -1.7531469e-06 -2.2901748e-07)
(-1.9164233e-07 -1.8063263e-06 -1.8941294e-07)
(-9.6943515e-07 -1.5711626e-06 -1.1013642e-07)
(-1.6013045e-06 -1.0751912e-06 -1.2857303e-09)
(-2.0143146e-06 -3.9159402e-07 1.2888486e-07)
(5.0099531e-07 -9.8216462e-07 -1.1163108e-07)
(-1.0775512e-07 -9.8957549e-07 -9.2482937e-08)
(-6.8754165e-07 -8.4959992e-07 -5.1223553e-08)
(-1.1566574e-06 -5.73681e-07 7.1346122e-09)
(-1.4950334e-06 -2.0234965e-07 6.9522999e-08)
(4.4808097e-07 -3.1412382e-07 -6.0679622e-08)
(-5.9374672e-08 -3.1185024e-07 -5.7327446e-08)
(-5.5358951e-07 -2.6547921e-07 -3.1319068e-08)
(-9.5384778e-07 -1.7789312e-07 5.0350809e-09)
(-1.2638192e-06 -6.2925572e-08 2.7235335e-08)
(1.3720979e-06 -3.5086756e-06 -5.0899344e-07)
(-2.4122377e-07 -3.8046596e-06 -4.4253466e-07)
(-1.8158298e-06 -3.4876416e-06 -2.9336655e-07)
(-3.1138641e-06 -2.5833818e-06 -7.7786697e-08)
(-3.9266129e-06 -1.2250187e-06 1.7336718e-07)
(9.2384163e-07 -2.4499425e-06 -2.7306709e-07)
(-2.0677663e-07 -2.6158407e-06 -2.3111872e-07)
(-1.2796927e-06 -2.3518298e-06 -1.4518513e-07)
(-2.1550745e-06 -1.6901794e-06 -2.0320477e-08)
(-2.7214879e-06 -7.3577403e-07 1.3018136e-07)
(6.5426429e-07 -1.6159442e-06 -1.4050643e-07)
(-1.4311113e-07 -1.6877126e-06 -1.1392356e-07)
(-8.9016844e-07 -1.4911355e-06 -6.1706251e-08)
(-1.4978083e-06 -1.0492674e-06 1.3265514e-08)
(-1.9206867e-06 -4.3772184e-07 9.8394173e-08)
(5.1166585e-07 -9.1659145e-07 -7.1968019e-08)
(-8.1968046e-08 -9.3651932e-07 -5.4978718e-08)
(-6.4124762e-07 -8.1405648e-07 -1.8534434e-08)
(-1.1016609e-06 -5.6662924e-07 2.7854278e-08)
(-1.4461252e-06 -2.4102563e-07 6.7578955e-08)
(4.5565389e-07 -2.9601799e-07 -4.6586377e-08)
(-4.0876633e-08 -2.9724817e-07 -2.9666493e-08)
(-5.2033448e-07 -2.5465721e-07 2.9069819e-09)
(-9.2457678e-07 -1.7632041e-07 3.4423391e-08)
(-1.2377125e-06 -7.7818077e-08 5.0789457e-08)
(1.3633319e-06 -3.3366757e-06 -1.4397162e-07)
(-1.6412061e-07 -3.6382416e-06 -1.1192938e-07)
(-1.6928321e-06 -3.3739315e-06 -6.0448542e-08)
(-2.9583634e-06 -2.5488819e-06 1.2547723e-08)
(-3.7916101e-06 -1.2660165e-06 9.0403843e-08)
(9.2862883e-07 -2.3281549e-06 -7.6489218e-08)
(-1.6185738e-07 -2.5099748e-06 -6.0630916e-08)
(-1.2078784e-06 -2.2768764e-06 -2.9847303e-08)
(-2.0608595e-06 -1.6593887e-06 1.7637312e-08)
(-2.6424279e-06 -7.5971704e-07 6.778307e-08)
(6.6441612e-07 -1.5520479e-06 -3.9705055e-08)
(-1.1284215e-07 -1.6301863e-06 -2.4926058e-08)
(-8.4224608e-07 -1.4445119e-06 3.3850244e-09)
(-1.4412041e-06 -1.0270165e-06 3.8027361e-08)
(-1.8818269e-06 -4.5419642e-07 6.7143282e-08)
(5.2606178e-07 -8.8825043e-07 -2.3923396e-08)
(-5.4321534e-08 -9.0531895e-07 6.2772397e-10)
(-6.0470866e-07 -7.8497876e-07 3.2438086e-08)
(-1.070544e-06 -5.5250841e-07 5.7990387e-08)
(-1.4334118e-06 -2.499388e-07 7.2208782e-08)
(4.7579968e-07 -2.8875085e-07 -1.9385214e-08)
(-9.8813123e-09 -2.8654134e-07 1.5676742e-08)
(-4.8949963e-07 -2.440322e-07 4.9164023e-08)
(-9.0596531e-07 -1.713083e-07 6.860153e-08)
(-1.2354766e-06 -7.9692607e-08 7.4834215e-08)
(1.3362823e-06 -3.4180259e-06 3.2219942e-07)
(-1.577007e-07 -3.7264133e-06 2.9106514e-07)
(-1.6913527e-06 -3.4509535e-06 2.198058e-07)
(-2.9630117e-06 -2.6005064e-06 1.1256487e-07)
(-3.8436211e-06 -1.2688225e-06 -3.8189128e-08)
(9.0544052e-07 -2.3456759e-06 1.816064e-07)
(-1.6013471e-07 -2.5288374e-06 1.6408958e-07)
(-1.2014245e-06 -2.2879962e-06 1.2330316e-07)
(-2.0574441e-06 -1.6646998e-06 5.877074e-08)
(-2.6701855e-06 -7.5903459e-07 -3.2974544e-08)
(6.6019628e-07 -1.5633783e-06 1.0729223e-07)
(-1.0002105e-07 -1.6264539e-06 1.0532441e-07)
(-8.2721502e-07 -1.4288501e-06 8.6364491e-08)
(-1.43405e-06 -1.0089143e-06 4.5711132e-08)
(-1.9061064e-06 -4.3329612e-07 -1.5296713e-08)
(5.4157003e-07 -8.9627071e-07 7.3387224e-08)
(-2.5606564e-08 -8.9590048e-07 8.4983333e-08)
(-5.8388495e-07 -7.6824994e-07 8.0429125e-08)
(-1.0618902e-06 -5.3602432e-07 5.4729455e-08)
(-1.4576855e-06 -2.3330929e-07 1.4182766e-08)
(5.0058269e-07 -2.9147697e-07 6.1639797e-08)
(2.7672604e-08 -2.8218472e-07 7.9312689e-08)
(-4.6740969e-07 -2.3790607e-07 8.0438997e-08)
(-8.9890659e-07 -1.6567845e-07 6.2355327e-08)
(-1.2585951e-06 -7.5163606e-08 3.2593337e-08)
)
;

boundaryField
{
    movingWall
    {
        type            fixedValue;
        value           uniform (0 0 0);
    }
    CPLReceiveMD
    {
        type            fixedValue;
        value           nonuniform 0();
    }
    streamwiseIn
    {
        type            cyclic;
    }
    streamwiseOut
    {
        type            cyclic;
    }
    front
    {
        type            cyclic;
    }
    back
    {
        type            cyclic;
    }
    procBoundary16to7
    {
        type            processor;
        value           nonuniform List<vector> 
25
(
(1.3732639e-06 -5.1537084e-06 -1.0831743e-06)
(-7.5020657e-07 -5.3735182e-06 -9.9907237e-07)
(-2.7467958e-06 -4.6383291e-06 -7.2241218e-07)
(-4.29874e-06 -3.0286971e-06 -2.7873497e-07)
(-5.2322636e-06 -8.2579592e-07 2.2766644e-07)
(8.8346323e-07 -3.4132622e-06 -6.2819979e-07)
(-5.2189156e-07 -3.5018286e-06 -5.7370299e-07)
(-1.8213833e-06 -2.9983774e-06 -4.0369678e-07)
(-2.8246948e-06 -1.9650054e-06 -1.3983214e-07)
(-3.4510103e-06 -5.9092651e-07 1.4550561e-07)
(6.1120754e-07 -2.1455678e-06 -3.9407879e-07)
(-3.3532179e-07 -2.1549564e-06 -3.6168916e-07)
(-1.2099727e-06 -1.8138524e-06 -2.5049402e-07)
(-1.8912892e-06 -1.1674846e-06 -7.5732276e-08)
(-2.3371829e-06 -3.3093901e-07 1.1541052e-07)
(4.8385584e-07 -1.1776441e-06 -2.8294006e-07)
(-1.901763e-07 -1.149174e-06 -2.5543297e-07)
(-8.3391158e-07 -9.4947812e-07 -1.7147228e-07)
(-1.3417814e-06 -5.9867114e-07 -3.8973356e-08)
(-1.6880463e-06 -1.5237635e-07 1.1407014e-07)
(4.4079319e-07 -3.7327293e-07 -2.3893752e-07)
(-1.0745452e-07 -3.5532052e-07 -2.0798383e-07)
(-6.5949773e-07 -2.9029581e-07 -1.3523446e-07)
(-1.0939418e-06 -1.8093e-07 -2.0956273e-08)
(-1.3898601e-06 -4.2755746e-08 1.2023829e-07)
)
;
    }
    procBoundary16to13
    {
        type            processor;
        value           nonuniform List<vector> 
25
(
(2.1324439e-06 -6.593217e-06 -1.8093412e-06)
(-7.1713538e-07 -7.0629007e-06 -1.6852223e-06)
(-3.4851874e-06 -6.2986052e-06 -1.2064157e-06)
(-5.7008851e-06 -4.3651829e-06 -4.3139118e-07)
(-7.0262969e-06 -1.6328017e-06 4.8428711e-07)
(2.0922075e-06 -5.5587912e-06 -1.457309e-06)
(-4.3434544e-07 -6.0449039e-06 -1.3508182e-06)
(-2.9123733e-06 -5.5229735e-06 -9.6798413e-07)
(-4.9465251e-06 -4.0348631e-06 -3.6660128e-07)
(-6.2047531e-06 -1.8310272e-06 3.1520354e-07)
(2.0822816e-06 -4.8629513e-06 -8.5623801e-07)
(-2.2781056e-07 -5.3640286e-06 -7.8909798e-07)
(-2.5009705e-06 -5.0172881e-06 -5.4649417e-07)
(-4.4176974e-06 -3.8343863e-06 -1.7396284e-07)
(-5.6562488e-06 -1.9726405e-06 2.3125639e-07)
(2.101224e-06 -4.5777081e-06 -1.6713882e-07)
(-1.246016e-07 -5.0898261e-06 -1.3887729e-07)
(-2.2972381e-06 -4.8368103e-06 -6.6535435e-08)
(-4.1687745e-06 -3.7934758e-06 3.476188e-08)
(-5.4298346e-06 -2.0582514e-06 1.1158689e-07)
(2.1568756e-06 -4.7035861e-06 4.3678419e-07)
(-1.2720717e-07 -5.2384838e-06 4.7493129e-07)
(-2.3273313e-06 -5.0004059e-06 4.0590893e-07)
(-4.2395751e-06 -3.924269e-06 2.3820278e-07)
(-5.5156863e-06 -2.0829446e-06 8.4903071e-09)
)
;
    }
    procBoundary16to15
    {
        type            processor;
        value           nonuniform List<vector> 
25
(
(3.0090107e-06 -3.5156656e-06 -9.2769867e-07)
(2.0179682e-06 -2.4276021e-06 -5.2978356e-07)
(1.3928359e-06 -1.5898872e-06 -3.0101259e-07)
(1.0366569e-06 -9.0475366e-07 -1.7643427e-07)
(8.7751235e-07 -2.9320996e-07 -1.2306932e-07)
(2.883788e-06 -3.0093353e-06 -7.61304e-07)
(1.9666203e-06 -2.1130861e-06 -4.3121002e-07)
(1.3780013e-06 -1.4019999e-06 -2.3170905e-07)
(1.0367283e-06 -8.0135107e-07 -1.1685978e-07)
(8.8304558e-07 -2.5941729e-07 -6.5350364e-08)
(2.780742e-06 -2.6462197e-06 -4.4356753e-07)
(1.9235108e-06 -1.8980071e-06 -2.5442569e-07)
(1.3635098e-06 -1.275537e-06 -1.4154036e-07)
(1.0348e-06 -7.3840298e-07 -8.0045192e-08)
(8.8591065e-07 -2.4171953e-07 -5.7385202e-08)
(2.7172435e-06 -2.4656464e-06 -7.6113784e-08)
(1.8957993e-06 -1.8110589e-06 -4.2229804e-08)
(1.354197e-06 -1.2276194e-06 -3.0858045e-08)
(1.0371377e-06 -7.1720505e-07 -2.9276456e-08)
(8.9461036e-07 -2.3677013e-07 -2.9252053e-08)
(2.7067279e-06 -2.4749782e-06 1.9105759e-07)
(1.8853109e-06 -1.8527514e-06 1.2300087e-07)
(1.3529256e-06 -1.2625836e-06 7.8689858e-08)
(1.0462389e-06 -7.3680231e-07 4.8124057e-08)
(9.1127327e-07 -2.4169923e-07 3.2462297e-08)
)
;
    }
    procBoundary16to17
    {
        type            processor;
        value           nonuniform List<vector> 
25
(
(-4.6298028e-06 1.0235525e-06 7.6725177e-07)
(-3.1507953e-06 6.2567201e-07 4.5876663e-07)
(-2.2243224e-06 4.2383307e-07 2.8798505e-07)
(-1.6955511e-06 2.5448819e-07 1.8008799e-07)
(-1.4647792e-06 8.5116193e-08 1.1616754e-07)
(-4.3116493e-06 6.1520353e-07 5.2852828e-07)
(-2.9775864e-06 4.5080858e-07 3.3127342e-07)
(-2.1270646e-06 3.1680066e-07 2.186031e-07)
(-1.6279952e-06 1.7637454e-07 1.3353558e-07)
(-1.4037877e-06 5.2837215e-08 8.0005073e-08)
(-4.0909128e-06 3.5137904e-07 3.4616727e-07)
(-2.8587358e-06 3.1574683e-07 2.2427701e-07)
(-2.0649121e-06 2.2609523e-07 1.4575325e-07)
(-1.5910642e-06 1.1591033e-07 8.9475919e-08)
(-1.3756628e-06 3.161725e-08 6.2766023e-08)
(-4.004445e-06 2.385248e-07 9.5539513e-08)
(-2.81892e-06 2.5039455e-07 6.8939682e-08)
(-2.0546639e-06 1.8199957e-07 5.2607657e-08)
(-1.5980309e-06 9.3403856e-08 4.6430041e-08)
(-1.3907435e-06 2.615065e-08 4.7718962e-08)
(-4.0827421e-06 2.4499433e-07 -1.6807399e-07)
(-2.8705018e-06 2.7281497e-07 -1.1345509e-07)
(-2.1077083e-06 2.0358559e-07 -6.3906095e-08)
(-1.6574469e-06 1.110356e-07 -2.2498553e-08)
(-1.449209e-06 3.2922085e-08 2.968204e-09)
)
;
    }
    procBoundary16to25
    {
        type            processor;
        value           nonuniform List<vector> 
25
(
(1.4633395e-06 -3.5918535e-06 6.51441e-07)
(-2.6651423e-07 -3.9490833e-06 6.3110353e-07)
(-1.8713324e-06 -3.6565373e-06 4.829389e-07)
(-3.2163583e-06 -2.7283139e-06 2.0443212e-07)
(-4.072249e-06 -1.3074813e-06 -1.6454634e-07)
(9.6971754e-07 -2.543062e-06 3.8645672e-07)
(-2.2016062e-07 -2.6957155e-06 3.7942675e-07)
(-1.3131972e-06 -2.4103177e-06 2.846894e-07)
(-2.2171372e-06 -1.7262425e-06 1.0289462e-07)
(-2.8146537e-06 -7.3682463e-07 -1.3779001e-07)
(6.9105067e-07 -1.660267e-06 2.4855557e-07)
(-1.3376989e-07 -1.7092925e-06 2.4558553e-07)
(-9.0185935e-07 -1.4873859e-06 1.7706589e-07)
(-1.5428653e-06 -1.0310577e-06 4.9627827e-08)
(-1.9914441e-06 -4.070391e-07 -1.1497932e-07)
(5.6292106e-07 -9.3387972e-07 1.8759325e-07)
(-4.7279633e-08 -9.3129512e-07 1.8319175e-07)
(-6.3496254e-07 -7.9086291e-07 1.3236451e-07)
(-1.1367904e-06 -5.3582683e-07 3.9512227e-08)
(-1.5106398e-06 -2.0202421e-07 -7.3379753e-08)
(5.2265007e-07 -3.0047305e-07 1.6974917e-07)
(8.9178881e-09 -2.9217648e-07 1.6163124e-07)
(-5.0645699e-07 -2.4398224e-07 1.160084e-07)
(-9.5381097e-07 -1.6364727e-07 3.9097353e-08)
(-1.2948637e-06 -6.1261075e-08 -4.461762e-08)
)
;
    }
}


// ************************************************************************* //
