/*--------------------------------*- C++ -*----------------------------------*\
| =========                 |                                                 |
| \\      /  F ield         | OpenFOAM: The Open Source CFD Toolbox           |
|  \\    /   O peration     | Version:  3.0.1                                 |
|   \\  /    A nd           | Web:      www.OpenFOAM.org                      |
|    \\/     M anipulation  |                                                 |
\*---------------------------------------------------------------------------*/
FoamFile
{
    version     2.0;
    format      ascii;
    class       surfaceScalarField;
    location    "0.2";
    object      phi;
}
// * * * * * * * * * * * * * * * * * * * * * * * * * * * * * * * * * * * * * //

dimensions      [0 3 -1 0 0 0 0];

internalField   nonuniform List<scalar> 
300
(
-0.0018106962
0.00029579141
0.00023967521
-0.0013032113
0.00087299363
0.00037375679
-0.00057549727
0.0012743037
0.00042260372
0.00024719284
0.0014431666
0.00040377385
0.001356005
0.00032259031
-0.0012341249
0.0002032046
0.00014869701
-0.00090299194
0.00056448811
0.00022096507
-0.00040853615
0.000811167
0.00024979719
0.00015902234
0.00090761803
0.00023706047
0.00084255049
0.00018912756
-0.00087359427
0.00013536552
9.9212429e-05
-0.00065679979
0.00033976146
0.00013485861
-0.00031275917
0.00047724102
0.0001501362
9.3538385e-05
0.00052712481
0.00014141846
0.00047898629
0.00010911561
-0.00066942921
6.8093143e-05
5.8960565e-05
-0.00051799214
0.00015547069
8.2600478e-05
-0.0002646626
0.00021746259
9.4298054e-05
4.5118746e-05
0.00024040971
8.7394697e-05
0.00021529883
6.3267015e-05
-0.00058232067
2.8779147e-05
-0.00045530365
5.5348912e-05
-0.00024216284
6.5515674e-05
1.9978151e-05
6.3635217e-05
4.5307233e-05
-0.0016765271
0.00020484859
0.00018378706
-0.0012521436
0.00072038613
0.00026359452
-0.00059643525
0.0010994678
0.00029261475
0.00016593879
0.0012761113
0.00027146042
0.0012219331
0.00020805094
-0.0011616461
0.00015433643
0.00011700296
-0.00087391863
0.00047842826
0.00015915514
-0.00042134626
0.00071124237
0.00017146187
0.00011095676
0.00081190237
0.00015261289
0.000762528
0.00011036378
-0.00083799476
9.8709027e-05
7.6172025e-05
-0.00064147679
0.00028758577
9.6037921e-05
-0.0003213791
0.00041907188
9.9407087e-05
6.1182907e-05
0.00047161867
8.3493827e-05
0.00043293801
5.4609395e-05
-0.00064931062
4.2158882e-05
4.4751653e-05
-0.00050856563
0.00012840423
5.6703302e-05
-0.00027073229
0.0001886908
5.6260557e-05
2.2295658e-05
0.00021200405
4.4369976e-05
0.00019466668
2.678214e-05
-0.00056292172
2.7357342e-05
-0.00044792802
3.7614394e-05
-0.00024764261
3.5969099e-05
4.92536e-06
2.7936672e-05
1.8145749e-05
-0.0015968895
0.00013808143
9.3199738e-05
-0.001223034
0.0006160016
0.00012123054
-0.00061743401
0.00097701876
0.0001213249
0.00010512061
0.0011571221
0.00010094828
0.0011224803
7.4214911e-05
-0.0011196075
0.00011318901
6.2562051e-05
-0.00086151961
0.00041524562
7.2220978e-05
-0.00044005951
0.00063932366
6.4856954e-05
6.9784966e-05
0.00074281393
4.4734689e-05
0.00070589518
2.3667735e-05
-0.00081793236
6.7301374e-05
4.0872978e-05
-0.00063792345
0.00024841927
4.0897563e-05
-0.00033717039
0.00037746359
2.9261181e-05
3.2503263e-05
0.00043252984
1.1567866e-05
0.00040490677
-2.5164002e-06
-0.00063701575
2.513402e-05
2.7096851e-05
-0.00050887773
0.00010948217
2.1458824e-05
-0.0002826263
0.00016879742
7.9608783e-06
4.6791885e-06
0.0001956911
-4.9214821e-06
0.00018609994
-1.2179179e-05
-0.00055250898
2.2744203e-05
-0.00044955
1.3481473e-05
-0.00025569997
7.3259034e-07
-4.918043e-06
-8.6557247e-06
-1.3295887e-05
-0.0015689112
0.00010750443
-1.6785719e-05
-0.0012227818
0.00056705207
-4.2140741e-05
-0.00063777957
0.00092095483
-6.6952832e-05
7.8498003e-05
0.0011009439
-7.5798494e-05
0.0010720091
-4.9992573e-05
-0.0011100545
9.1458371e-05
-7.4520098e-06
-0.00086880049
0.00038403922
-2.7651771e-05
-0.00046018227
0.00060390847
-5.0801842e-05
4.8890928e-05
0.00070971189
-6.28447e-05
0.00067970045
-4.6366721e-05
-0.00081794108
5.3677159e-05
1.1685794e-06
-0.00064959216
0.00022905999
-2.1973337e-05
-0.00035490615
0.00035719197
-4.5137833e-05
1.8453377e-05
0.00041605118
-5.8048775e-05
0.0003951563
-4.9284006e-05
-0.00064280111
2.0865639e-05
1.0571316e-05
-0.00052243441
0.00010154842
-1.6608164e-05
-0.00029559724
0.00016181819
-3.9173642e-05
-2.6998322e-06
0.00019188874
-5.0606803e-05
0.00018485642
-4.7526619e-05
-0.00056194244
1.9604957e-05
-0.00046233452
-1.2307665e-05
-0.00026517288
-3.2239525e-05
-9.7325509e-06
-4.2852763e-05
-4.513712e-05
-0.0015941232
0.00011666658
-0.0012476188
0.00058189124
-0.00064678296
0.00093852961
0.00010429838
0.0011142192
0.0010758944
-0.0011298519
9.9874976e-05
-0.00089237983
0.00038987807
-0.00047237188
0.00060970603
6.5158906e-05
0.00071478051
0.00067732078
-0.00084047001
6.2419769e-05
-0.00067337254
0.00023367934
-0.0003678479
0.00036345057
2.7194884e-05
0.00042358651
0.00039721578
-0.00066947106
2.6341519e-05
-0.00054478844
0.00010592978
-0.00030699012
0.00016853551
3.8849078e-07
0.00019981577
0.00018802537
-0.00058965271
-0.00048199592
-0.00027553041
-1.1449395e-05
)
;

boundaryField
{
    movingWall
    {
        type            calculated;
        value           uniform 0;
    }
    CPLReceiveMD
    {
        type            calculated;
        value           nonuniform 0();
    }
    streamwiseIn
    {
        type            cyclic;
        value           nonuniform 0();
    }
    streamwiseOut
    {
        type            cyclic;
        value           nonuniform 0();
    }
    front
    {
        type            cyclic;
        value           nonuniform 0();
    }
    back
    {
        type            cyclic;
        value           nonuniform 0();
    }
    procBoundary17to8
    {
        type            processor;
        value           nonuniform List<scalar> 
25
(
-0.00037464701
-0.00046356222
-0.00048883348
-0.00043135486
-0.00029044348
-0.0002180941
-0.00027269801
-0.00029149122
-0.00026209052
-0.00017714362
-0.00013113171
-0.00016821429
-0.00017965026
-0.00016073421
-0.00010690993
-8.211871e-05
-0.00011282428
-0.00011910801
-0.00010272539
-6.3067424e-05
-5.8819024e-05
-8.6005718e-05
-8.9220321e-05
-7.4451237e-05
-4.0645761e-05
)
;
    }
    procBoundary17to14
    {
        type            processor;
        value           nonuniform List<scalar> 
25
(
-0.00052004695
-0.0013511918
-0.001945643
-0.002182394
-0.0020092686
-0.00028496971
-0.0010595535
-0.0016423178
-0.0019208152
-0.0018317222
-0.00014110262
-0.00086987374
-0.0014388948
-0.0017402954
-0.0017096262
-8.1377489e-05
-0.00079820411
-0.0013666021
-0.0016794783
-0.0016841809
-7.688793e-05
-0.00082853037
-0.0014207247
-0.0017500746
-0.0017869508
)
;
    }
    procBoundary17to15throughstreamwiseOut
    {
        type            processorCyclic;
        value           nonuniform List<scalar> 
25
(
0.0010972628
0.00074233194
0.00051551148
0.00037776083
0.00031106121
0.00092805735
0.00064475211
0.00045596939
0.00034015254
0.00028593166
0.0008101209
0.00058171443
0.00041987598
0.00031858389
0.00027043144
0.00074040467
0.00055133588
0.00040716339
0.00031211829
0.00026426338
0.00070180789
0.00053263937
0.00040277167
0.00030953664
0.00025710323
)
;
    }
    procBoundary17to16
    {
        type            processor;
        value           nonuniform List<scalar> 
25
(
0.0018914509
0.0012854352
0.00090536561
0.00068640111
0.00058867867
0.0017712898
0.0012195146
0.00086323549
0.00065280431
0.00055955793
0.0016742536
0.0011664436
0.00083353841
0.00063557579
0.00054765522
0.0016329189
0.0011439868
0.00082518439
0.00063532976
0.00055043109
0.0016701612
0.00116517
0.00084483535
0.00065615131
0.00056957182
)
;
    }
    procBoundary17to26
    {
        type            processor;
        value           nonuniform List<scalar> 
25
(
-0.00011803789
-0.00020904096
-0.00025805319
-0.00027666427
-0.00028925554
-8.3827649e-05
-0.00013058572
-0.00015070676
-0.00015157157
-0.00015927749
-5.2510932e-05
-8.3148222e-05
-9.4760427e-05
-9.2216488e-05
-9.4046997e-05
-2.7862867e-05
-5.2775302e-05
-6.2480569e-05
-6.2037538e-05
-6.4648605e-05
-1.2569412e-05
-3.4058888e-05
-4.5660714e-05
-4.8867246e-05
-5.5957641e-05
)
;
    }
}


// ************************************************************************* //
