/*--------------------------------*- C++ -*----------------------------------*\
| =========                 |                                                 |
| \\      /  F ield         | OpenFOAM: The Open Source CFD Toolbox           |
|  \\    /   O peration     | Version:  3.0.1                                 |
|   \\  /    A nd           | Web:      www.OpenFOAM.org                      |
|    \\/     M anipulation  |                                                 |
\*---------------------------------------------------------------------------*/
FoamFile
{
    version     2.0;
    format      ascii;
    class       volVectorField;
    location    "0.2";
    object      U;
}
// * * * * * * * * * * * * * * * * * * * * * * * * * * * * * * * * * * * * * //

dimensions      [0 1 -1 0 0 0 0];

internalField   nonuniform List<vector> 
125
(
(-4.6298028e-06 1.0235525e-06 7.6725177e-07)
(-3.8960378e-06 2.7830255e-06 1.0465072e-06)
(-2.3520697e-06 4.0260207e-06 1.1417434e-06)
(-4.1355014e-07 4.5301851e-06 1.0439626e-06)
(1.678394e-06 4.2031984e-06 7.6673303e-07)
(-3.1507953e-06 6.2567201e-07 4.5876663e-07)
(-2.6736027e-06 1.7984935e-06 6.1711715e-07)
(-1.6415002e-06 2.6077471e-06 6.768382e-07)
(-3.1406692e-07 2.9373288e-06 6.2396575e-07)
(1.1249883e-06 2.7457703e-06 4.5804711e-07)
(-2.2243224e-06 4.2383307e-07 2.8798505e-07)
(-1.9139627e-06 1.1309026e-06 3.7889236e-07)
(-1.2132343e-06 1.6127857e-06 4.1221729e-07)
(-2.7552686e-07 1.7931371e-06 3.7769121e-07)
(7.5989502e-07 1.6513738e-06 2.7029627e-07)
(-1.6955511e-06 2.5448819e-07 1.8008799e-07)
(-1.4846499e-06 6.1954855e-07 2.4292839e-07)
(-9.7926552e-07 8.7136538e-07 2.6385775e-07)
(-2.7547861e-07 9.5942081e-07 2.3579695e-07)
(5.27456e-07 8.6781847e-07 1.5794769e-07)
(-1.4647792e-06 8.5116193e-08 1.1616754e-07)
(-1.2964304e-06 1.9457426e-07 1.7282057e-07)
(-8.7276733e-07 2.7265365e-07 1.8996058e-07)
(-2.7864958e-07 3.0047353e-07 1.6492158e-07)
(4.1295126e-07 2.6907714e-07 1.0434786e-07)
(-4.3116493e-06 6.1520353e-07 5.2852828e-07)
(-3.6638772e-06 2.2271055e-06 7.9656203e-07)
(-2.3145988e-06 3.4283816e-06 8.9657086e-07)
(-5.4138526e-07 3.9949895e-06 8.440142e-07)
(1.3655803e-06 3.8148751e-06 6.6656171e-07)
(-2.9775864e-06 4.5080858e-07 3.3127342e-07)
(-2.5463246e-06 1.4998407e-06 4.7496287e-07)
(-1.6213735e-06 2.2643818e-06 5.2661967e-07)
(-3.900225e-07 2.6093899e-06 4.8709032e-07)
(9.4316039e-07 2.4792362e-06 3.7590169e-07)
(-2.1270646e-06 3.1680066e-07 2.186031e-07)
(-1.850304e-06 9.5799708e-07 2.8829516e-07)
(-1.2050496e-06 1.4153049e-06 3.1174928e-07)
(-3.2653092e-07 1.604185e-06 2.8113723e-07)
(6.4537955e-07 1.4939e-06 2.052307e-07)
(-1.6279952e-06 1.7637454e-07 1.3353558e-07)
(-1.4478202e-06 5.2032836e-07 1.7400993e-07)
(-9.7518543e-07 7.6223617e-07 1.8530296e-07)
(-3.1142729e-07 8.5439218e-07 1.6284138e-07)
(4.5230113e-07 7.8420443e-07 1.1251745e-07)
(-1.4037877e-06 5.2837215e-08 8.0005073e-08)
(-1.2637923e-06 1.6064714e-07 1.1635176e-07)
(-8.7039415e-07 2.361908e-07 1.2349662e-07)
(-3.0414028e-07 2.6484335e-07 1.0669143e-07)
(3.6300042e-07 2.4307221e-07 7.5690708e-08)
(-4.0909128e-06 3.5137904e-07 3.4616727e-07)
(-3.5279952e-06 1.8591573e-06 4.8057154e-07)
(-2.3046175e-06 3.0224265e-06 5.1701233e-07)
(-6.4355928e-07 3.6206695e-06 4.6543061e-07)
(1.1424865e-06 3.5380142e-06 3.5602965e-07)
(-2.8587358e-06 3.1574683e-07 2.2427701e-07)
(-2.4782564e-06 1.2902266e-06 2.8884774e-07)
(-1.6293728e-06 2.0229255e-06 2.9511609e-07)
(-4.647849e-07 2.3744519e-06 2.4664406e-07)
(8.1311409e-07 2.2844393e-06 1.6887055e-07)
(-2.0649121e-06 2.2609523e-07 1.4575325e-07)
(-1.8208166e-06 8.2994967e-07 1.7079482e-07)
(-1.2203922e-06 1.2714689e-06 1.6061844e-07)
(-3.8204544e-07 1.4688882e-06 1.1874476e-07)
(5.6453856e-07 1.3879896e-06 6.5222429e-08)
(-1.5910642e-06 1.1591033e-07 8.9475919e-08)
(-1.4328826e-06 4.4762966e-07 9.7543207e-08)
(-9.9043407e-07 6.8313811e-07 8.0209067e-08)
(-3.4826411e-07 7.8499986e-07 4.9156945e-08)
(4.0339805e-07 7.3830218e-07 1.7899757e-08)
(-1.3756628e-06 3.161725e-08 6.2766023e-08)
(-1.2529389e-06 1.3695453e-07 6.383369e-08)
(-8.8242766e-07 2.1088819e-07 4.5843942e-08)
(-3.264555e-07 2.4436265e-07 2.3994115e-08)
(3.3137437e-07 2.3228474e-07 5.6984504e-09)
(-4.004445e-06 2.385248e-07 9.5539513e-08)
(-3.4930321e-06 1.7082866e-06 9.8574501e-08)
(-2.3297398e-06 2.8594391e-06 6.7653727e-08)
(-7.0236794e-07 3.4738602e-06 3.0932979e-08)
(1.0220966e-06 3.4423842e-06 2.9667891e-08)
(-2.81892e-06 2.5039455e-07 6.8939682e-08)
(-2.4754855e-06 1.190064e-06 5.601711e-08)
(-1.6635771e-06 1.9079879e-06 1.7472311e-08)
(-5.1626804e-07 2.2627041e-06 -2.2909862e-08)
(7.4899347e-07 2.1884289e-06 -2.9445869e-08)
(-2.0546639e-06 1.8199957e-07 5.2607657e-08)
(-1.8354388e-06 7.6669254e-07 2.4347094e-08)
(-1.2570997e-06 1.2003979e-06 -1.988588e-08)
(-4.2192693e-07 1.4066978e-06 -5.8243934e-08)
(5.3100189e-07 1.3429292e-06 -6.5362599e-08)
(-1.5980309e-06 9.3403856e-08 4.6430041e-08)
(-1.457087e-06 4.133785e-07 5.8260511e-09)
(-1.0235717e-06 6.4746499e-07 -3.905542e-08)
(-3.737366e-07 7.5963809e-07 -6.9538043e-08)
(3.8596018e-07 7.2467228e-07 -7.4935598e-08)
(-1.3907435e-06 2.615065e-08 4.7718962e-08)
(-1.2807144e-06 1.2695707e-07 1.2879964e-09)
(-9.1023373e-07 2.0183694e-07 -3.9353549e-08)
(-3.4428577e-07 2.3968264e-07 -6.4172399e-08)
(3.1750044e-07 2.3086514e-07 -7.2217433e-08)
(-4.0827421e-06 2.4499433e-07 -1.6807399e-07)
(-3.555881e-06 1.7648018e-06 -3.1384061e-07)
(-2.372259e-06 2.9472276e-06 -4.0634803e-07)
(-6.8154512e-07 3.5771922e-06 -4.4100565e-07)
(1.0060508e-06 3.5744938e-06 -4.2457889e-07)
(-2.8705018e-06 2.7281497e-07 -1.1345509e-07)
(-2.5297238e-06 1.2159992e-06 -1.9719332e-07)
(-1.7082997e-06 1.9353859e-06 -2.5193814e-07)
(-5.1170308e-07 2.285275e-06 -2.6826436e-07)
(7.4567051e-07 2.1894088e-06 -2.5797963e-07)
(-2.1077083e-06 2.0358559e-07 -6.3906095e-08)
(-1.8933101e-06 7.7975861e-07 -1.3065044e-07)
(-1.3029833e-06 1.2149412e-06 -1.7494698e-07)
(-4.2752216e-07 1.42226e-06 -1.8796255e-07)
(5.3622153e-07 1.3424999e-06 -1.7957283e-07)
(-1.6574469e-06 1.110356e-07 -2.2498553e-08)
(-1.518368e-06 4.2456702e-07 -8.7238763e-08)
(-1.0657982e-06 6.6364967e-07 -1.2718478e-07)
(-3.8414429e-07 7.7903828e-07 -1.4098702e-07)
(3.8629825e-07 7.3140804e-07 -1.4062351e-07)
(-1.449209e-06 3.2922085e-08 2.968204e-09)
(-1.3400114e-06 1.3241449e-07 -6.0673661e-08)
(-9.4788806e-07 2.1056877e-07 -9.7575524e-08)
(-3.5931938e-07 2.496922e-07 -1.145957e-07)
(3.0584962e-07 2.3496012e-07 -1.2619221e-07)
)
;

boundaryField
{
    movingWall
    {
        type            fixedValue;
        value           uniform (0 0 0);
    }
    CPLReceiveMD
    {
        type            fixedValue;
        value           nonuniform 0();
    }
    streamwiseIn
    {
        type            cyclic;
    }
    streamwiseOut
    {
        type            cyclic;
    }
    front
    {
        type            cyclic;
    }
    back
    {
        type            cyclic;
    }
    procBoundary17to8
    {
        type            processor;
        value           nonuniform List<vector> 
25
(
(-5.1500554e-06 1.3514295e-06 8.4579232e-07)
(-4.0383688e-06 3.3829701e-06 1.1134833e-06)
(-2.3120542e-06 4.7345235e-06 1.2073004e-06)
(-1.6637488e-07 5.2110576e-06 1.0885595e-06)
(1.9115672e-06 4.7897047e-06 7.8309748e-07)
(-3.4495619e-06 9.300753e-07 4.8266135e-07)
(-2.7643961e-06 2.1674555e-06 6.466632e-07)
(-1.6282221e-06 2.9939079e-06 7.0772472e-07)
(-1.712314e-07 3.2756613e-06 6.4556796e-07)
(1.2799793e-06 2.9756729e-06 4.7378729e-07)
(-2.3916734e-06 5.9547931e-07 3.0414084e-07)
(-1.9745362e-06 1.3321858e-06 4.0701649e-07)
(-1.2038484e-06 1.8282853e-06 4.4001434e-07)
(-1.846099e-07 1.9923538e-06 3.9315295e-07)
(8.6706494e-07 1.7939994e-06 2.7745969e-07)
(-1.786437e-06 3.4817363e-07 2.2520042e-07)
(-1.53159e-06 7.2636037e-07 2.9291499e-07)
(-9.6805398e-07 9.8443924e-07 3.0313925e-07)
(-2.0551723e-07 1.0671034e-06 2.5197536e-07)
(6.0916195e-07 9.5009817e-07 1.5473998e-07)
(-1.5123015e-06 1.1672272e-07 1.9339847e-07)
(-1.3375853e-06 2.3069881e-07 2.405967e-07)
(-8.6249517e-07 3.1001843e-07 2.3696935e-07)
(-2.1852755e-07 3.3564589e-07 1.8337849e-07)
(4.8150614e-07 2.9660636e-07 9.325359e-08)
)
;
    }
    procBoundary17to14
    {
        type            processor;
        value           nonuniform List<vector> 
25
(
(-7.0265393e-06 1.4743425e-06 1.1949926e-06)
(-5.6760708e-06 4.1573272e-06 1.7729818e-06)
(-3.3886599e-06 6.0847359e-06 1.9829801e-06)
(-4.9124459e-07 6.8804738e-06 1.8400338e-06)
(2.3828701e-06 6.4044457e-06 1.4328767e-06)
(-6.3696333e-06 7.4206051e-07 1.0034469e-06)
(-5.3595026e-06 3.1724946e-06 1.398831e-06)
(-3.3892574e-06 5.0222604e-06 1.5302139e-06)
(-7.7651596e-07 5.9374892e-06 1.396606e-06)
(1.9286623e-06 5.7381974e-06 1.0410859e-06)
(-5.9429118e-06 2.8313839e-07 6.0095574e-07)
(-5.1493038e-06 2.5386031e-06 8.0766667e-07)
(-3.3908849e-06 4.3381462e-06 8.6405864e-07)
(-9.8037258e-07 5.317864e-06 7.6777332e-07)
(1.6113537e-06 5.2770955e-06 5.4136151e-07)
(-5.793223e-06 9.2653897e-08 1.7532439e-07)
(-5.0963998e-06 2.3105864e-06 1.503726e-07)
(-3.4291508e-06 4.1046294e-06 9.267124e-08)
(-1.0992131e-06 5.1034114e-06 2.0567395e-08)
(1.499751e-06 5.1166328e-06 -6.5925541e-08)
(-5.9041261e-06 1.0969133e-07 -3.0307187e-07)
(-5.231957e-06 2.4495121e-06 -5.2696241e-07)
(-3.5206901e-06 4.3075264e-06 -6.6197353e-07)
(-1.1389694e-06 5.3128746e-06 -6.4413139e-07)
(1.6280457e-06 5.3176174e-06 -4.6130076e-07)
)
;
    }
    procBoundary17to15throughstreamwiseOut
    {
        type            processorCyclic;
        value           nonuniform List<vector> 
25
(
(3.3937277e-06 3.2723034e-06 4.9797562e-07)
(2.3360171e-06 2.0188298e-06 2.8714685e-07)
(1.6514802e-06 1.1956047e-06 1.5600582e-07)
(1.2339601e-06 6.123091e-07 7.8936131e-08)
(1.034129e-06 1.8584021e-07 4.641586e-08)
(2.9880331e-06 3.0094876e-06 3.0810666e-07)
(2.0884027e-06 1.8891892e-06 1.7521608e-07)
(1.4974827e-06 1.1133256e-06 8.5780773e-08)
(1.1413091e-06 5.7184306e-07 3.8783427e-08)
(9.7680865e-07 1.7540667e-07 2.511454e-08)
(2.7207088e-06 2.8224299e-06 1.2194695e-07)
(1.9361742e-06 1.7965039e-06 5.2477147e-08)
(1.4130604e-06 1.0591721e-06 4.367103e-09)
(1.0951205e-06 5.5166099e-07 -1.7184005e-08)
(9.4497691e-07 1.7219451e-07 -2.1505869e-08)
(2.6069107e-06 2.7231027e-06 -1.0550274e-07)
(1.888591e-06 1.7716094e-06 -9.0353444e-08)
(1.3991833e-06 1.0436644e-06 -8.6560966e-08)
(1.0921855e-06 5.459566e-07 -8.6637839e-08)
(9.4005376e-07 1.7107249e-07 -8.9697158e-08)
(2.6207441e-06 2.694817e-06 -1.2957706e-07)
(1.9172621e-06 1.8154457e-06 -1.2390804e-07)
(1.4352427e-06 1.0628876e-06 -1.0645388e-07)
(1.1184416e-06 5.4847648e-07 -9.0722081e-08)
(9.5297288e-07 1.690868e-07 -8.3963392e-08)
)
;
    }
    procBoundary17to16
    {
        type            processor;
        value           nonuniform List<vector> 
25
(
(-4.5939675e-06 -1.0927186e-06 2.0810109e-07)
(-3.1018804e-06 -6.0698694e-07 1.4514159e-07)
(-2.1405755e-06 -3.2434142e-07 1.1428356e-07)
(-1.5725261e-06 -1.3938005e-07 8.4486588e-08)
(-1.3126825e-06 -3.5544966e-08 6.4306728e-08)
(-4.2155641e-06 -1.1649414e-06 2.5767195e-07)
(-2.8870254e-06 -6.8474404e-07 1.8290342e-07)
(-2.0143146e-06 -3.9159402e-07 1.2888486e-07)
(-1.4950334e-06 -2.0234965e-07 6.9522999e-08)
(-1.2638192e-06 -6.2925572e-08 2.7235335e-08)
(-3.9266129e-06 -1.2250187e-06 1.7336718e-07)
(-2.7214879e-06 -7.3577403e-07 1.3018136e-07)
(-1.9206867e-06 -4.3772184e-07 9.8394173e-08)
(-1.4461252e-06 -2.4102563e-07 6.7578955e-08)
(-1.2377125e-06 -7.7818077e-08 5.0789457e-08)
(-3.7916101e-06 -1.2660165e-06 9.0403843e-08)
(-2.6424279e-06 -7.5971704e-07 6.778307e-08)
(-1.8818269e-06 -4.5419642e-07 6.7143282e-08)
(-1.4334118e-06 -2.499388e-07 7.2208782e-08)
(-1.2354766e-06 -7.9692607e-08 7.4834215e-08)
(-3.8436211e-06 -1.2688225e-06 -3.8189128e-08)
(-2.6701855e-06 -7.5903459e-07 -3.2974544e-08)
(-1.9061064e-06 -4.3329612e-07 -1.5296713e-08)
(-1.4576855e-06 -2.3330929e-07 1.4182766e-08)
(-1.2585951e-06 -7.5163606e-08 3.2593337e-08)
)
;
    }
    procBoundary17to26
    {
        type            processor;
        value           nonuniform List<vector> 
25
(
(-4.2800964e-06 4.2814157e-07 -4.3827695e-07)
(-3.7313062e-06 2.0380556e-06 -7.0100859e-07)
(-2.4569048e-06 3.2694745e-06 -8.0745676e-07)
(-7.205988e-07 3.8497273e-06 -7.7141326e-07)
(1.3335252e-06 3.6457053e-06 -6.6024831e-07)
(-2.9831388e-06 3.5456244e-07 -3.1571365e-07)
(-2.6139685e-06 1.3732542e-06 -4.4483554e-07)
(-1.7346482e-06 2.139389e-06 -4.8394786e-07)
(-5.2230952e-07 2.5157472e-06 -4.4308715e-07)
(8.9334979e-07 2.433435e-06 -3.7604819e-07)
(-2.1700177e-06 2.7295612e-07 -2.2305394e-07)
(-1.9464797e-06 8.766471e-07 -2.8824734e-07)
(-1.3144118e-06 1.3251512e-06 -2.9730011e-07)
(-4.2655278e-07 1.5339752e-06 -2.6015614e-07)
(6.1251056e-07 1.4602853e-06 -2.1451108e-07)
(-1.6994524e-06 1.6028648e-07 -1.4284648e-07)
(-1.5617733e-06 4.8333771e-07 -1.8756595e-07)
(-1.0773199e-06 7.2479799e-07 -1.881019e-07)
(-3.8717532e-07 8.3295098e-07 -1.5906551e-07)
(4.3622512e-07 7.779864e-07 -1.2798846e-07)
(-1.4840105e-06 5.1621504e-08 -9.3706316e-08)
(-1.3812581e-06 1.5349879e-07 -1.3515347e-07)
(-9.6415577e-07 2.3140064e-07 -1.358376e-07)
(-3.7290245e-07 2.6601308e-07 -1.1462387e-07)
(3.4813275e-07 2.4522585e-07 -9.3528569e-08)
)
;
    }
}


// ************************************************************************* //
