/*--------------------------------*- C++ -*----------------------------------*\
| =========                 |                                                 |
| \\      /  F ield         | OpenFOAM: The Open Source CFD Toolbox           |
|  \\    /   O peration     | Version:  3.0.1                                 |
|   \\  /    A nd           | Web:      www.OpenFOAM.org                      |
|    \\/     M anipulation  |                                                 |
\*---------------------------------------------------------------------------*/
FoamFile
{
    version     2.0;
    format      ascii;
    class       surfaceScalarField;
    location    "0.1";
    object      phi;
}
// * * * * * * * * * * * * * * * * * * * * * * * * * * * * * * * * * * * * * //

dimensions      [0 3 -1 0 0 0 0];

internalField   nonuniform List<scalar> 
300
(
-4.0764412e-05
0.0006096395
6.7212711e-05
0.0002890994
0.00061653153
5.9660432e-05
0.00055533315
0.00052282312
4.1609793e-05
0.00072378671
0.00035425302
2.0447223e-05
0.00013774656
2.6132772e-06
-3.3865726e-05
0.00038902315
5.969401e-05
0.00019540461
0.00039372531
5.130777e-05
0.00038677352
0.00033615596
3.8008762e-05
0.00050728665
0.00022977368
2.2501311e-05
9.2214812e-05
9.0921171e-06
-2.9161283e-05
0.00025058702
4.7600971e-05
0.00013784007
0.00024680198
4.2542386e-05
0.00028039466
0.00020906339
3.3710026e-05
0.0003697291
0.00014344967
2.2647117e-05
6.1557917e-05
1.2459568e-05
-3.2945513e-05
0.00012785465
2.824563e-05
0.00010010302
0.00012291
3.0093186e-05
0.00021478178
0.00010385681
2.6691852e-05
0.00028783722
7.1952621e-05
1.9512378e-05
3.3161617e-05
1.0530149e-05
-3.7881096e-05
1.4469335e-05
8.1027677e-05
2.1282757e-05
0.00018282824
2.0823714e-05
0.00024897919
1.5204413e-05
5.9700263e-06
-4.8316855e-05
0.00060212816
0.00010490733
0.00027104984
0.00060818848
9.163694e-05
0.00053417222
0.0005192315
7.0779079e-05
0.00070595497
0.00035631383
4.5002878e-05
0.0001442281
1.7086495e-05
-4.2252062e-05
0.00037693283
7.7635425e-05
0.00018210593
0.00038496364
6.8991387e-05
0.00037126654
0.00033186094
5.5339314e-05
0.00049387793
0.00022992221
3.8184944e-05
9.5583439e-05
1.8953766e-05
-3.4219976e-05
0.00023123247
5.811636e-05
0.00012900782
0.00023435394
5.3438013e-05
0.00026933192
0.00020204637
4.4663176e-05
0.00035954171
0.00014031576
3.2317001e-05
5.9628852e-05
1.7756874e-05
-3.1098038e-05
0.00011408396
4.3433779e-05
9.6701713e-05
0.00011410636
4.1665936e-05
0.00020760237
9.7994961e-05
3.548047e-05
0.00027885504
6.7649242e-05
2.5719749e-05
2.8603658e-05
1.3730841e-05
-3.1067719e-05
3.6055067e-05
8.0568634e-05
3.4905062e-05
0.00017720896
2.9270372e-05
0.00023974481
2.0646161e-05
1.0025473e-05
-6.1587171e-05
0.0005748562
0.00012395325
0.00025019259
0.00058554496
0.00011159947
0.00050839616
0.00050379454
9.0936164e-05
0.00067803803
0.00034949818
6.2651419e-05
0.00014609661
2.679381e-05
-5.0896195e-05
0.00035741409
8.6071043e-05
0.00016845404
0.00036941149
7.9097735e-05
0.00035411227
0.00032118637
6.6691512e-05
0.0004746466
0.00022405557
4.8340521e-05
9.4387272e-05
2.4609755e-05
-3.8898422e-05
0.00021655013
6.6526057e-05
0.00012023302
0.00022258245
6.0895357e-05
0.00025698579
0.00019286437
5.1040819e-05
0.00034498154
0.00013371909
3.7229402e-05
5.5603127e-05
2.0954076e-05
-3.2865951e-05
0.00010671527
5.7414101e-05
9.051625e-05
0.00010735524
4.959404e-05
0.00019784167
9.1793167e-05
3.9182276e-05
0.00026686611
6.2581619e-05
2.7795828e-05
2.4901351e-05
1.625896e-05
-3.221776e-05
5.3074549e-05
7.4933937e-05
4.2934151e-05
0.00016858476
3.2078198e-05
0.00022912412
2.2493774e-05
1.3498373e-05
-7.3940847e-05
0.00053696722
0.00012553695
0.00022953
0.00055303815
0.00011434039
0.00048011131
0.0004795467
9.9413201e-05
0.00064217917
0.00033518576
7.3134058e-05
0.00014391272
3.2796638e-05
-5.7869548e-05
0.0003378671
8.4353631e-05
0.00015604811
0.00035120774
7.9153164e-05
0.00033576136
0.00030553498
6.9926588e-05
0.00045091546
0.00021294426
5.2744931e-05
9.0731805e-05
2.8430038e-05
-4.4529173e-05
0.00020743782
6.7990931e-05
0.00011037859
0.00021128099
6.0248088e-05
0.00024317442
0.00018100591
5.0334017e-05
0.0003287061
0.00012428569
3.8084918e-05
5.0908173e-05
2.4539191e-05
-4.0686044e-05
0.00010238943
6.3904354e-05
8.0104523e-05
0.00010070688
4.9122091e-05
0.00018645524
8.4698016e-05
3.6257509e-05
0.00025532921
5.7285897e-05
2.6995054e-05
2.2144525e-05
2.0341149e-05
-4.2358169e-05
6.1619198e-05
6.4077995e-05
4.2430792e-05
0.00015900035
2.9092788e-05
0.00022012871
2.2350079e-05
1.8736525e-05
-8.5137098e-05
0.00049577145
0.00021460351
0.00051783976
0.0004538317
0.00045005162
0.00060183987
0.00031479173
0.00013954522
-6.3069703e-05
0.00032150031
0.00014682201
0.00033229883
0.00031857972
0.00028593947
0.00042659994
0.0001982825
8.6840578e-05
-5.2271884e-05
0.00020335024
0.00010046474
0.00020015401
0.00023092539
0.00016692868
0.0003151602
0.00011319543
4.6710008e-05
-5.546824e-05
0.00010011967
6.7240043e-05
9.4026737e-05
0.00017719284
7.7541247e-05
0.00024867527
5.264696e-05
2.0544733e-05
-6.1546535e-05
5.0740037e-05
0.00015225766
0.00021651515
)
;

boundaryField
{
    movingWall
    {
        type            calculated;
        value           uniform 0;
    }
    CPLReceiveMD
    {
        type            calculated;
        value           nonuniform 0();
    }
    streamwiseIn
    {
        type            cyclic;
        value           nonuniform 0();
    }
    streamwiseOut
    {
        type            cyclic;
        value           nonuniform 0();
    }
    front
    {
        type            cyclic;
        value           nonuniform 0();
    }
    back
    {
        type            cyclic;
        value           nonuniform 0();
    }
    procBoundary6to3
    {
        type            processor;
        value           nonuniform List<scalar> 
25
(
-0.00098440988
-0.00096030854
-0.00079097627
-0.00052396751
-0.0001983386
-0.00095171739
-0.0009444298
-0.00078799543
-0.00052976859
-0.00021193408
-0.0009060412
-0.00090882057
-0.00076590501
-0.00052117123
-0.00021602123
-0.00084969434
-0.00085847255
-0.00073027369
-0.00050247991
-0.00021267889
-0.00078978601
-0.00080282261
-0.00068891733
-0.00047852123
-0.00020575308
)
;
    }
    procBoundary6to7
    {
        type            processor;
        value           nonuniform List<scalar> 
25
(
0.00079419246
0.00055462059
0.00039776401
0.00030006769
0.00025106176
0.00076535972
0.00053339374
0.00038321975
0.00029143472
0.00024590519
0.00073362829
0.00050947284
0.00036556751
0.00027891661
0.00023691626
0.00069844167
0.00048396737
0.00034710586
0.0002656425
0.00022660987
0.0006621031
0.00045995937
0.00033070627
0.00025394177
0.00021667536
)
;
    }
    procBoundary6to8throughstreamwiseIn
    {
        type            processorCyclic;
        value           nonuniform List<scalar> 
25
(
0.00037414228
0.00026778735
0.0002014771
0.00016071245
0.00013992661
0.00038288159
0.00026849051
0.00019686156
0.00015417539
0.00013366391
0.00038366977
0.00026641037
0.00019317345
0.00015046997
0.00013029457
0.00037556945
0.00026156136
0.0001900613
0.00014861601
0.00012874308
0.00036025556
0.00025483495
0.00018799663
0.00014839421
0.00012766053
)
;
    }
    procBoundary6to15
    {
        type            processor;
        value           nonuniform List<scalar> 
25
(
9.6864287e-05
9.7734239e-05
8.5537164e-05
6.3765779e-05
3.5607238e-05
7.1108337e-05
6.9378669e-05
5.9862442e-05
4.4844742e-05
2.669485e-05
5.6638919e-05
5.3239369e-05
4.4390217e-05
3.2606229e-05
1.9714734e-05
4.6415624e-05
4.3188819e-05
3.5237746e-05
2.5517683e-05
1.5641214e-05
3.9760356e-05
3.6713486e-05
2.9767928e-05
2.1658228e-05
1.3742843e-05
)
;
    }
    procBoundary6to24throughfront
    {
        type            processorCyclic;
        value           nonuniform List<scalar> 
25
(
-2.5588161e-05
-1.6807195e-05
-7.7521847e-06
-1.1580806e-06
1.6737295e-06
-6.832495e-06
-7.4626873e-06
-4.8565066e-06
-2.522554e-06
-1.03466e-06
1.0879721e-05
2.206681e-06
-1.0069122e-06
-2.2355719e-06
-2.1632538e-06
2.3304736e-05
1.0510753e-05
2.3947086e-06
-2.3365764e-06
-3.8102689e-06
3.2142439e-05
1.9283727e-05
7.0745943e-06
-2.5327805e-06
-7.7705575e-06
)
;
    }
}


// ************************************************************************* //
