/*--------------------------------*- C++ -*----------------------------------*\
| =========                 |                                                 |
| \\      /  F ield         | OpenFOAM: The Open Source CFD Toolbox           |
|  \\    /   O peration     | Version:  3.0.1                                 |
|   \\  /    A nd           | Web:      www.OpenFOAM.org                      |
|    \\/     M anipulation  |                                                 |
\*---------------------------------------------------------------------------*/
FoamFile
{
    version     2.0;
    format      ascii;
    class       volVectorField;
    location    "0.1";
    object      U;
}
// * * * * * * * * * * * * * * * * * * * * * * * * * * * * * * * * * * * * * //

dimensions      [0 1 -1 0 0 0 0];

internalField   nonuniform List<vector> 
125
(
(-5.1862229e-07 1.9924309e-06 1.1599642e-07)
(3.1042905e-07 1.9709464e-06 8.311021e-08)
(1.0555513e-06 1.6421807e-06 3.8407679e-08)
(1.5988958e-06 1.0977347e-06 -3.5744799e-09)
(1.8974658e-06 4.2008702e-07 -3.691172e-08)
(-3.7706281e-07 1.2482601e-06 9.5625763e-08)
(2.0192752e-07 1.2627624e-06 7.3461717e-08)
(7.2772668e-07 1.0736809e-06 4.4751538e-08)
(1.1175742e-06 7.3000603e-07 1.4987727e-08)
(1.3273808e-06 2.8743959e-07 -1.2739411e-08)
(-2.8829676e-07 7.9949433e-07 6.9191686e-08)
(1.3584985e-07 8.0064384e-07 5.924856e-08)
(5.2279495e-07 6.8151421e-07 4.3396116e-08)
(8.1265447e-07 4.6652374e-07 2.5315542e-08)
(9.5936522e-07 1.9221371e-07 6.7313163e-09)
(-2.4207205e-07 4.7306815e-07 3.6754907e-08)
(8.39474e-08 4.6215636e-07 4.0769808e-08)
(3.9360658e-07 3.911653e-07 3.6159377e-08)
(6.2827372e-07 2.6926403e-07 2.7311279e-08)
(7.3488071e-07 1.184049e-07 1.6328724e-08)
(-2.222595e-07 1.5979764e-07 1.5994674e-08)
(5.3933445e-08 1.5361779e-07 2.7896872e-08)
(3.2982013e-07 1.2980454e-07 2.8733782e-08)
(5.3975929e-07 8.9929475e-08 2.3768405e-08)
(6.2505102e-07 4.1446866e-08 1.7175761e-08)
(-5.3899086e-07 1.9421722e-06 2.1513452e-07)
(2.7842602e-07 1.9406596e-06 1.8910475e-07)
(1.0065397e-06 1.633955e-06 1.4047092e-07)
(1.5501586e-06 1.1075564e-06 8.1801944e-08)
(1.839138e-06 4.4518305e-07 2.4620569e-08)
(-3.884261e-07 1.2237565e-06 1.716571e-07)
(1.7482125e-07 1.2413766e-06 1.5036872e-07)
(6.9172015e-07 1.0638167e-06 1.1668045e-07)
(1.0814308e-06 7.3276337e-07 7.5854612e-08)
(1.2840874e-06 2.9975028e-07 3.5056056e-08)
(-2.8885122e-07 7.6018699e-07 1.3214518e-07)
(1.1848624e-07 7.7412889e-07 1.1997375e-07)
(4.9792639e-07 6.6737092e-07 9.7964924e-08)
(7.860922e-07 4.627895e-07 6.8704059e-08)
(9.2845103e-07 1.9401199e-07 3.7770125e-08)
(-2.3159158e-07 4.3165924e-07 8.9598845e-08)
(8.2005185e-08 4.3558958e-07 8.9698361e-08)
(3.8038075e-07 3.7506482e-07 7.7714905e-08)
(6.0807185e-07 2.5996597e-07 5.6539821e-08)
(7.1286191e-07 1.1029502e-07 3.0326117e-08)
(-2.059145e-07 1.4258639e-07 6.3155414e-08)
(6.1876407e-08 1.4261449e-07 7.0234624e-08)
(3.2222225e-07 1.2247799e-07 6.2617462e-08)
(5.2119226e-07 8.4550798e-08 4.4813121e-08)
(6.0706239e-07 3.5750066e-08 1.9994348e-08)
(-5.5656703e-07 1.850992e-06 2.8607247e-07)
(2.3576544e-07 1.8678435e-06 2.5404167e-07)
(9.482485e-07 1.5870432e-06 2.021403e-07)
(1.4830454e-06 1.0882886e-06 1.3456514e-07)
(1.7645803e-06 4.5262795e-07 5.4849375e-08)
(-3.9663224e-07 1.1652708e-06 2.0463152e-07)
(1.4695086e-07 1.1936314e-06 1.8510946e-07)
(6.5321257e-07 1.0311749e-06 1.5253658e-07)
(1.0359498e-06 7.1690815e-07 1.0815532e-07)
(1.2301482e-06 3.0058915e-07 5.4453703e-08)
(-2.9008959e-07 7.1743607e-07 1.5580246e-07)
(1.016696e-07 7.3997348e-07 1.4291597e-07)
(4.7152525e-07 6.4254867e-07 1.1962921e-07)
(7.5245967e-07 4.4720895e-07 8.6932374e-08)
(8.8818596e-07 1.8748378e-07 4.8388373e-08)
(-2.2916988e-07 4.0409431e-07 1.2605967e-07)
(7.206346e-08 4.1243477e-07 1.140747e-07)
(3.6044804e-07 3.5583337e-07 9.3328135e-08)
(5.8088493e-07 2.4538416e-07 6.6894221e-08)
(6.8222828e-07 1.0063402e-07 3.7487118e-08)
(-2.0314044e-07 1.3337667e-07 1.1141196e-07)
(5.3395493e-08 1.3417656e-07 9.7298918e-08)
(3.0439863e-07 1.147266e-07 7.6685597e-08)
(4.9713618e-07 7.821696e-08 5.392482e-08)
(5.8255042e-07 3.1122701e-08 2.9404754e-08)
(-5.6188584e-07 1.733216e-06 3.1186697e-07)
(1.9449385e-07 1.7642884e-06 2.8242989e-07)
(8.8706314e-07 1.5122023e-06 2.3794099e-07)
(1.4028677e-06 1.0470378e-06 1.6973486e-07)
(1.6757753e-06 4.4571996e-07 7.448998e-08)
(-3.9928846e-07 1.0934865e-06 2.1303146e-07)
(1.2272631e-07 1.1302509e-06 1.978148e-07)
(6.1476601e-07 9.8130564e-07 1.7077369e-07)
(9.833479e-07 6.851306e-07 1.2635761e-07)
(1.1686033e-06 2.9328928e-07 6.6300487e-08)
(-2.9323816e-07 6.8161514e-07 1.6814611e-07)
(8.2312991e-08 7.0309414e-07 1.5142944e-07)
(4.4194279e-07 6.0816248e-07 1.267187e-07)
(7.1485136e-07 4.215284e-07 9.4143027e-08)
(8.4476493e-07 1.7704541e-07 5.6866772e-08)
(-2.3662767e-07 3.8729664e-07 1.5164789e-07)
(4.9273646e-08 3.8999681e-07 1.233951e-07)
(3.3320027e-07 3.3214025e-07 9.4299698e-08)
(5.5223083e-07 2.2697175e-07 6.8488582e-08)
(6.5121465e-07 9.1318636e-08 4.5750169e-08)
(-2.1387665e-07 1.2797017e-07 1.4336707e-07)
(2.7150039e-08 1.2586721e-07 1.0670612e-07)
(2.7884815e-07 1.0585879e-07 7.6463691e-08)
(4.7391142e-07 7.159812e-08 5.6054788e-08)
(5.5842322e-07 2.7677069e-08 4.0293624e-08)
(-5.5674044e-07 1.6068638e-06 2.7801249e-07)
(1.6183946e-07 1.6507505e-06 2.6510504e-07)
(8.3555348e-07 1.4236528e-06 2.3119814e-07)
(1.3195944e-06 9.9160354e-07 1.7113173e-07)
(1.5799289e-06 4.3160149e-07 8.5507858e-08)
(-3.9738094e-07 1.0215499e-06 1.9433033e-07)
(1.046931e-07 1.0626309e-06 1.8566839e-07)
(5.8175539e-07 9.1995264e-07 1.6223959e-07)
(9.3147662e-07 6.4131631e-07 1.2198939e-07)
(1.1081992e-06 2.8296594e-07 6.8907147e-08)
(-3.0033584e-07 6.5605251e-07 1.55788e-07)
(6.0242195e-08 6.6555378e-07 1.4186046e-07)
(4.1423884e-07 5.6607468e-07 1.1840644e-07)
(6.8260774e-07 3.8933992e-07 8.8364794e-08)
(8.0733318e-07 1.6693346e-07 5.5317841e-08)
(-2.5482821e-07 3.7935107e-07 1.3790003e-07)
(1.4715268e-08 3.6773811e-07 1.1538894e-07)
(3.0554153e-07 3.0559742e-07 8.9369429e-08)
(5.323354e-07 2.0730984e-07 6.5641216e-08)
(6.2827135e-07 8.4070863e-08 4.4978117e-08)
(-2.3650893e-07 1.2513361e-07 1.2672438e-07)
(-1.3507887e-08 1.175183e-07 9.8930406e-08)
(2.537473e-07 9.691409e-08 7.3575994e-08)
(4.6096611e-07 6.580024e-08 5.5010475e-08)
(5.4148814e-07 2.5677566e-08 4.0599261e-08)
)
;

boundaryField
{
    movingWall
    {
        type            fixedValue;
        value           uniform (0 0 0);
    }
    CPLReceiveMD
    {
        type            fixedValue;
        value           nonuniform 0();
    }
    streamwiseIn
    {
        type            cyclic;
    }
    streamwiseOut
    {
        type            cyclic;
    }
    front
    {
        type            cyclic;
    }
    back
    {
        type            cyclic;
    }
    procBoundary6to3
    {
        type            processor;
        value           nonuniform List<vector> 
25
(
(-7.010779e-07 3.1570244e-06 1.637558e-07)
(5.5217771e-07 3.0361678e-06 1.0558165e-07)
(1.6009384e-06 2.4787319e-06 4.693507e-08)
(2.3396679e-06 1.641877e-06 -5.3013278e-09)
(2.7405409e-06 6.3752114e-07 -5.2932224e-08)
(-7.4456417e-07 3.0536417e-06 3.1309592e-07)
(4.8303842e-07 2.9863966e-06 2.5347167e-07)
(1.5248233e-06 2.4591157e-06 1.7181795e-07)
(2.2702027e-06 1.638511e-06 8.5300721e-08)
(2.6758384e-06 6.5456779e-07 2.5151207e-09)
(-7.7290515e-07 2.9152485e-06 4.1358769e-07)
(4.1089974e-07 2.8776731e-06 3.6148066e-07)
(1.4327674e-06 2.3897999e-06 2.7428928e-07)
(2.170365e-06 1.6086619e-06 1.6867394e-07)
(2.5683637e-06 6.6257063e-07 5.3916795e-08)
(-7.8436396e-07 2.729115e-06 4.5715966e-07)
(3.4374001e-07 2.714995e-06 4.149078e-07)
(1.3320166e-06 2.2782165e-06 3.3416407e-07)
(2.0498302e-06 1.554241e-06 2.2304267e-07)
(2.4325996e-06 6.5918041e-07 8.7326949e-08)
(-7.861286e-07 2.5153056e-06 4.3261501e-07)
(2.8790414e-07 2.5158859e-06 4.0858107e-07)
(1.2409023e-06 2.142798e-06 3.3811572e-07)
(1.9235279e-06 1.4877159e-06 2.3168405e-07)
(2.2872927e-06 6.4763914e-07 1.0090468e-07)
)
;
    }
    procBoundary6to7
    {
        type            processor;
        value           nonuniform List<vector> 
25
(
(1.9115405e-06 -3.1542538e-07 -5.9266258e-08)
(1.3251679e-06 -2.0809455e-07 -2.7521544e-08)
(9.4954013e-07 -1.2597633e-07 -8.1423231e-09)
(7.1536508e-07 -6.4894208e-08 -2.2061856e-09)
(5.9523568e-07 -1.9716834e-08 -5.8492771e-09)
(1.8535082e-06 -2.841946e-07 -5.108359e-08)
(1.2806171e-06 -1.7792356e-07 -2.1377951e-08)
(9.120347e-07 -1.0843596e-07 -2.4752045e-09)
(6.8660605e-07 -6.1271166e-08 3.8873885e-09)
(5.7621026e-07 -2.1070882e-08 2.3125214e-09)
(1.7749604e-06 -2.4992687e-07 -2.8797528e-08)
(1.2221907e-06 -1.5948616e-07 -7.3287542e-09)
(8.6718148e-07 -1.0071099e-07 3.246268e-09)
(6.5345683e-07 -6.0105944e-08 5.2469615e-09)
(5.5156952e-07 -2.1290726e-08 5.2856582e-09)
(1.6851558e-06 -2.1695847e-07 -1.4916538e-08)
(1.1574207e-06 -1.4587976e-07 4.4086068e-09)
(8.2018884e-07 -9.5860245e-08 1.3290252e-08)
(6.1937324e-07 -5.9230526e-08 1.4531656e-08)
(5.2414537e-07 -2.1030875e-08 1.4992511e-08)
(1.5905893e-06 -1.8748993e-07 -6.4167436e-09)
(1.09386e-06 -1.3127937e-07 9.743611e-09)
(7.7519747e-07 -9.0587939e-08 1.7733864e-08)
(5.8616127e-07 -5.8400029e-08 1.9899824e-08)
(4.9446595e-07 -2.0826237e-08 2.133849e-08)
)
;
    }
    procBoundary6to8throughstreamwiseIn
    {
        type            processorCyclic;
        value           nonuniform List<vector> 
25
(
(-1.3135034e-06 1.6469313e-06 1.276668e-07)
(-9.2665552e-07 1.0324369e-06 9.5467173e-08)
(-6.787918e-07 6.6565309e-07 6.6560813e-08)
(-5.1768838e-07 3.9617473e-07 3.4900874e-08)
(-4.3427611e-07 1.3386578e-07 1.735902e-08)
(-1.3112435e-06 1.5845215e-06 2.2704949e-07)
(-9.0593455e-07 9.9123701e-07 1.6993816e-07)
(-6.5506345e-07 6.1729437e-07 1.2176658e-07)
(-5.0263847e-07 3.5270467e-07 7.6796184e-08)
(-4.2714896e-07 1.1699535e-07 5.1115562e-08)
(-1.2814323e-06 1.4915706e-06 2.7693665e-07)
(-8.7980594e-07 9.2715395e-07 1.9597182e-07)
(-6.3347433e-07 5.7251111e-07 1.4730291e-07)
(-4.8676726e-07 3.2553694e-07 1.1911079e-07)
(-4.1477552e-07 1.0820449e-07 1.0526107e-07)
(-1.2358829e-06 1.3792129e-06 2.826033e-07)
(-8.5013464e-07 8.6160326e-07 1.9856349e-07)
(-6.1105272e-07 5.4043335e-07 1.6167569e-07)
(-4.6914829e-07 3.1068938e-07 1.4905344e-07)
(-4.0023078e-07 1.0317541e-07 1.400746e-07)
(-1.1837783e-06 1.2620028e-06 2.4623887e-07)
(-8.1952331e-07 8.0622634e-07 1.727968e-07)
(-5.9009303e-07 5.2300106e-07 1.4402917e-07)
(-4.5338061e-07 3.0397083e-07 1.3554535e-07)
(-3.8768086e-07 9.9262725e-08 1.2965493e-07)
)
;
    }
    procBoundary6to15
    {
        type            processor;
        value           nonuniform List<vector> 
25
(
(-5.4301967e-07 1.4949313e-06 1.974356e-07)
(1.4767949e-07 1.5413757e-06 2.0937629e-07)
(7.9308982e-07 1.3363262e-06 1.840669e-07)
(1.2571774e-06 9.3734314e-07 1.362787e-07)
(1.4982268e-06 4.1372243e-07 7.6700733e-08)
(-3.8641686e-07 9.71262e-07 1.4727948e-07)
(9.0635572e-08 1.0070064e-06 1.5061351e-07)
(5.51087e-07 8.6851394e-07 1.2989602e-07)
(8.9001546e-07 6.0236366e-07 9.5569568e-08)
(1.0563575e-06 2.6309927e-07 5.5906685e-08)
(-2.9540686e-07 6.2518485e-07 1.2091387e-07)
(4.4931434e-08 6.3281468e-07 1.1627429e-07)
(3.8844713e-07 5.3529232e-07 9.7791301e-08)
(6.5176276e-07 3.6518022e-07 7.1116129e-08)
(7.74134e-07 1.5311638e-07 4.0608536e-08)
(-2.5678408e-07 3.582647e-07 9.6137287e-08)
(7.4304342e-10 3.4709157e-07 9.3670348e-08)
(2.8345254e-07 2.8732827e-07 8.0756976e-08)
(5.0783952e-07 1.936312e-07 5.9542585e-08)
(6.0547326e-07 7.6610169e-08 3.3498665e-08)
(-2.4460118e-07 1.1682877e-07 7.5882319e-08)
(-2.5998343e-08 1.0943735e-07 8.023386e-08)
(2.3492822e-07 9.0087575e-08 7.244942e-08)
(4.4093468e-07 6.0983721e-08 5.3837423e-08)
(5.2475124e-07 2.3309431e-08 2.9150106e-08)
)
;
    }
    procBoundary6to24throughfront
    {
        type            processorCyclic;
        value           nonuniform List<vector> 
25
(
(-4.9443427e-07 2.0103022e-06 -1.0409237e-08)
(-3.6642064e-07 1.2705612e-06 -2.6505145e-08)
(-2.8153897e-07 8.1905784e-07 -3.1531955e-08)
(-2.3746051e-07 4.8485195e-07 -2.376818e-08)
(-2.1645235e-07 1.633374e-07 -1.4575944e-08)
(3.5601476e-07 1.9727795e-06 -5.1840823e-08)
(2.2569548e-07 1.2652383e-06 -4.3653865e-08)
(1.4428181e-07 8.068208e-07 -3.7649189e-08)
(8.2600715e-08 4.6693415e-07 -2.6126169e-08)
(4.9137298e-08 1.5547717e-07 -1.7321305e-08)
(1.0932244e-06 1.6361385e-06 -7.6465574e-08)
(7.5019414e-07 1.0588283e-06 -5.2853602e-08)
(5.3185941e-07 6.7596308e-07 -3.7238942e-08)
(3.9383928e-07 3.8971994e-07 -2.247699e-08)
(3.2635072e-07 1.2989449e-07 -1.3757924e-08)
(1.625478e-06 1.0872674e-06 -8.6875794e-08)
(1.1389217e-06 7.0387334e-07 -5.4954545e-08)
(8.22757e-07 4.5046594e-07 -3.1977211e-08)
(6.279025e-07 2.6150721e-07 -1.4433259e-08)
(5.3275028e-07 8.8086814e-08 -5.5277108e-09)
(1.8948297e-06 4.0499024e-07 -9.2084608e-08)
(1.3265966e-06 2.5610725e-07 -5.5645244e-08)
(9.619089e-07 1.6494386e-07 -2.6368735e-08)
(7.4237937e-07 9.9846344e-08 -3.6933628e-09)
(6.3668007e-07 3.4898941e-08 7.774065e-09)
)
;
    }
}


// ************************************************************************* //
