/*--------------------------------*- C++ -*----------------------------------*\
| =========                 |                                                 |
| \\      /  F ield         | OpenFOAM: The Open Source CFD Toolbox           |
|  \\    /   O peration     | Version:  3.0.1                                 |
|   \\  /    A nd           | Web:      www.OpenFOAM.org                      |
|    \\/     M anipulation  |                                                 |
\*---------------------------------------------------------------------------*/
FoamFile
{
    version     2.0;
    format      ascii;
    class       volScalarField;
    location    "0.1";
    object      p;
}
// * * * * * * * * * * * * * * * * * * * * * * * * * * * * * * * * * * * * * //

dimensions      [0 2 -2 0 0 0 0];

internalField   nonuniform List<scalar> 
3375
(
-1.8622556e-05
-0.026635748
-0.055985621
-0.062902295
-0.037561328
-0.039511765
-0.064926801
-0.068627646
-0.076423971
-0.11728272
-0.16544806
-0.25138841
-0.039827544
0.16522427
0.050961601
-0.0097576289
-0.029842688
-0.046597553
-0.050334463
-0.042191157
-0.043947463
-0.056732252
-0.068965913
-0.083162156
-0.10355456
-0.12094613
-0.12160729
-0.048399754
0.022684086
0.012984322
-0.022418843
-0.033568662
-0.043079681
-0.046689564
-0.046237974
-0.049408855
-0.057369441
-0.066992317
-0.077330409
-0.087372965
-0.091895878
-0.08270768
-0.050772475
-0.019944299
-0.014498812
-0.032615494
-0.037989975
-0.043378115
-0.046705734
-0.048757576
-0.052167827
-0.057593047
-0.064014298
-0.070335689
-0.075017162
-0.075182239
-0.067593661
-0.051710503
-0.036461164
-0.030644186
-0.039699035
-0.042078937
-0.045141557
-0.047807332
-0.050222798
-0.053190586
-0.056959521
-0.061062376
-0.064695979
-0.066748424
-0.06577691
-0.060676592
-0.052168822
-0.043994394
-0.039775303
-0.044342174
-0.045329403
-0.047092313
-0.049042778
-0.05108828
-0.053419469
-0.056017304
-0.058604003
-0.060656604
-0.061497496
-0.060442079
-0.057198155
-0.052405379
-0.047784342
-0.044966667
-0.047327571
-0.047703079
-0.048728655
-0.050085485
-0.051632892
-0.053342739
-0.055117666
-0.056753157
-0.057913261
-0.058221303
-0.057375744
-0.055332954
-0.052526093
-0.049806001
-0.047966497
-0.049224651
-0.049350145
-0.049957527
-0.050875248
-0.051979232
-0.053190629
-0.054393975
-0.055432373
-0.056097663
-0.056185977
-0.055572352
-0.054284312
-0.052591043
-0.050936171
-0.049736858
-0.050432669
-0.050460562
-0.050828471
-0.051441655
-0.052206324
-0.053047005
-0.053858704
-0.054522599
-0.054911864
-0.054917215
-0.054488572
-0.05366983
-0.052622796
-0.051592326
-0.050811417
-0.051204064
-0.051195676
-0.051425168
-0.051836897
-0.052362347
-0.05293467
-0.053479889
-0.053910838
-0.054144829
-0.054120358
-0.053827554
-0.053298453
-0.05263684
-0.051984723
-0.051476561
-0.051696819
-0.051676396
-0.051821146
-0.052099214
-0.052461641
-0.052859323
-0.053227381
-0.053511842
-0.053657336
-0.053627959
-0.053422436
-0.053076282
-0.052647557
-0.052222981
-0.051884167
-0.052002035
-0.051985074
-0.052082917
-0.05227659
-0.052530612
-0.052808337
-0.053061471
-0.053253142
-0.053346821
-0.053323485
-0.053180715
-0.052945365
-0.052659129
-0.052373242
-0.052136127
-0.052196823
-0.05218222
-0.052251242
-0.052391648
-0.052576789
-0.052775969
-0.052957174
-0.053090134
-0.053151704
-0.053132709
-0.053031887
-0.052867013
-0.052668929
-0.052468742
-0.052297711
-0.052322301
-0.052305803
-0.052355929
-0.052463481
-0.052607615
-0.052757874
-0.05289419
-0.052990447
-0.053032261
-0.053014433
-0.052940584
-0.052821616
-0.052677477
-0.052529684
-0.052402777
-0.052386331
-0.052367357
-0.052407942
-0.052499516
-0.052624223
-0.052749974
-0.052862734
-0.052941088
-0.052973823
-0.052956163
-0.052895822
-0.052801104
-0.052682829
-0.052560344
-0.052456416
-0.001650522
-0.003486466
-0.02840268
-0.10942393
-0.048484663
0.013642829
-0.040665745
-0.061580602
-0.086419669
-0.10840284
-0.14874892
-0.19837209
-0.084615453
0.068707262
0.047443473
-0.0051263024
-0.021011546
-0.038809147
-0.058232447
-0.048773846
-0.038798406
-0.052171564
-0.065532029
-0.080722174
-0.097367977
-0.1160386
-0.12177931
-0.066211508
0.0053403305
0.0148248
-0.020305664
-0.030185142
-0.040401235
-0.048265562
-0.049190502
-0.050072899
-0.056618078
-0.065093903
-0.074530754
-0.083820103
-0.090074552
-0.085002259
-0.057409228
-0.024952375
-0.014368322
-0.032099146
-0.036861037
-0.042474645
-0.047085271
-0.049884472
-0.052802261
-0.057376358
-0.062909077
-0.068563692
-0.073118003
-0.074305785
-0.06864976
-0.054286159
-0.038583012
-0.031190529
-0.039745038
-0.041803116
-0.044886826
-0.047925268
-0.050605344
-0.053421751
-0.056776243
-0.060403919
-0.063701031
-0.065761911
-0.065310807
-0.061087135
-0.053243489
-0.045045099
-0.040323275
-0.044513599
-0.045330593
-0.047050513
-0.049085993
-0.051198013
-0.053451709
-0.055854901
-0.05821388
-0.06011512
-0.060992085
-0.060199002
-0.057360112
-0.052885505
-0.048325671
-0.045353188
-0.047482755
-0.047769677
-0.048750366
-0.050108883
-0.051655142
-0.053313188
-0.054994645
-0.056523231
-0.057623095
-0.0579639
-0.057250391
-0.055401458
-0.052755792
-0.050094672
-0.04821811
-0.049338999
-0.049415009
-0.049990276
-0.050891201
-0.051977782
-0.053153032
-0.054308052
-0.055297787
-0.05594217
-0.056055148
-0.055509247
-0.054314678
-0.052705978
-0.05109588
-0.049895946
-0.050507755
-0.050510431
-0.050857234
-0.051453294
-0.052200826
-0.053016915
-0.053801948
-0.054444666
-0.054827892
-0.05484905
-0.054457681
-0.053686083
-0.052684633
-0.051682461
-0.050905457
-0.051254093
-0.051233525
-0.051447526
-0.051844254
-0.052356859
-0.052916085
-0.0534463
-0.053865176
-0.05409666
-0.054084556
-0.053813939
-0.05331192
-0.052674192
-0.052036221
-0.051531782
-0.051730472
-0.051706275
-0.05184199
-0.05210946
-0.052462954
-0.052846194
-0.05320544
-0.053482106
-0.053626222
-0.05360616
-0.053414463
-0.053085476
-0.052671003
-0.052255705
-0.051922185
-0.052031924
-0.052010767
-0.052101953
-0.05228786
-0.052535167
-0.052802261
-0.053048177
-0.053233198
-0.053324579
-0.053304641
-0.053172236
-0.052948459
-0.052672257
-0.052394821
-0.052166364
-0.052220658
-0.052203523
-0.052268123
-0.052402989
-0.052583029
-0.052774926
-0.052948389
-0.053075483
-0.053135002
-0.053117035
-0.053022912
-0.05286678
-0.052676387
-0.052483067
-0.052319233
-0.052336444
-0.052320872
-0.052369295
-0.052473252
-0.052612888
-0.052758824
-0.052887943
-0.052980174
-0.053021206
-0.053004979
-0.052934721
-0.052820982
-0.052681592
-0.052537797
-0.052413646
-0.052393578
-0.052378017
-0.052418372
-0.052507131
-0.052627214
-0.052750381
-0.052858101
-0.052934252
-0.052967102
-0.05295195
-0.05289356
-0.052800612
-0.052685051
-0.052564735
-0.052460526
0.04500064
-0.0068245746
-0.041634844
-0.072531983
-0.06295841
-0.043527834
-0.044436374
-0.061067362
-0.090563251
-0.10037916
-0.15565641
-0.31650888
-0.21078
0.16512636
0.20628954
0.0072046039
-0.018624993
-0.038233739
-0.053763156
-0.05573843
-0.051511664
-0.054678663
-0.064609573
-0.077317393
-0.091704844
-0.11735812
-0.14346196
-0.090425784
0.017050184
0.042769105
-0.017582238
-0.028980338
-0.039592708
-0.048007506
-0.051918776
-0.053633797
-0.057594581
-0.063979679
-0.071654972
-0.080497143
-0.089398035
-0.08942846
-0.063233883
-0.02475152
-0.010079953
-0.031855817
-0.036611289
-0.042243956
-0.047264058
-0.050902011
-0.053886599
-0.057552827
-0.062009432
-0.066785815
-0.071241273
-0.073496254
-0.069601107
-0.056137792
-0.039552387
-0.031124151
-0.040034524
-0.041918923
-0.044928318
-0.048087146
-0.050964562
-0.053709055
-0.056659774
-0.059765434
-0.062663796
-0.064716033
-0.06474277
-0.06128311
-0.053985201
-0.045803235
-0.040837329
-0.044842502
-0.045528268
-0.047167539
-0.049197643
-0.051316916
-0.053484557
-0.055684035
-0.0577937
-0.059520365
-0.06040698
-0.05986086
-0.057391476
-0.053234708
-0.048804317
-0.045788361
-0.047729773
-0.047942634
-0.048862439
-0.050181778
-0.051689933
-0.053278719
-0.054848565
-0.056257185
-0.057283671
-0.057642482
-0.057056429
-0.055399399
-0.052936783
-0.050379493
-0.048514293
-0.049504155
-0.049542882
-0.050077183
-0.050939898
-0.051987403
-0.053112147
-0.054205274
-0.055136216
-0.05574957
-0.055879437
-0.055402283
-0.054312433
-0.05280741
-0.051263706
-0.050081952
-0.050615705
-0.050599889
-0.05092048
-0.051487818
-0.052206194
-0.052986858
-0.053736634
-0.054348631
-0.054718013
-0.054752201
-0.054401174
-0.053687249
-0.052743475
-0.051781237
-0.051020712
-0.051329489
-0.051297252
-0.051494049
-0.051871111
-0.052363379
-0.052899878
-0.053407166
-0.053808087
-0.054032916
-0.054029103
-0.053784154
-0.053314128
-0.052709373
-0.052097018
-0.051606824
-0.051783002
-0.051752166
-0.051877439
-0.052132003
-0.052471514
-0.052838863
-0.053182532
-0.053447609
-0.053588013
-0.053574487
-0.053395698
-0.053086817
-0.052693369
-0.052296276
-0.051975101
-0.052070799
-0.052045316
-0.052129667
-0.052306984
-0.05254466
-0.052799775
-0.053034263
-0.053210853
-0.053299267
-0.053282464
-0.053159178
-0.052949233
-0.052687633
-0.052423222
-0.052204194
-0.052249759
-0.052230282
-0.052290489
-0.052419173
-0.052591922
-0.052774979
-0.052939313
-0.053059946
-0.053116984
-0.053100597
-0.053013254
-0.052867349
-0.05268754
-0.052503517
-0.052346486
-0.052358193
-0.052341736
-0.052387063
-0.052486131
-0.052619764
-0.052759432
-0.052881539
-0.052968954
-0.053008045
-0.052993005
-0.052927906
-0.052821601
-0.052690161
-0.052553187
-0.052433539
-0.052411637
-0.0523955
-0.052433033
-0.052517473
-0.052632235
-0.052750901
-0.052853249
-0.052925464
-0.052956554
-0.052942271
-0.052888065
-0.052801261
-0.052692593
-0.052577835
-0.052476897
0.014079603
-0.017439329
-0.033582929
-0.05605873
-0.11788831
-0.081596954
-0.027821539
-0.078038993
-0.054102696
-0.049752817
-0.13231527
-0.20222756
-0.11792704
0.072554775
0.091651832
-0.0031691509
-0.023935102
-0.036992499
-0.049828747
-0.065529672
-0.062701385
-0.057745573
-0.065076856
-0.064625655
-0.077293255
-0.10791907
-0.12524581
-0.075824817
0.0041600141
0.021307165
-0.021466499
-0.031295766
-0.039674715
-0.047247651
-0.054048974
-0.056840275
-0.059096046
-0.062897812
-0.066807225
-0.07516198
-0.08555918
-0.08582875
-0.06125987
-0.027728393
-0.015460762
-0.033670257
-0.037790669
-0.042591995
-0.047273515
-0.051487098
-0.05472246
-0.057771493
-0.06103973
-0.064569018
-0.068819256
-0.071700057
-0.068600176
-0.056149946
-0.040919493
-0.033216995
-0.04103537
-0.042624649
-0.045275267
-0.048238445
-0.051158513
-0.053860301
-0.056488704
-0.05906817
-0.061496962
-0.063475132
-0.063819416
-0.060896599
-0.054218019
-0.046606333
-0.041925635
-0.045436473
-0.045982269
-0.047443486
-0.049341908
-0.051390511
-0.053458431
-0.055470792
-0.057332637
-0.058867051
-0.05973307
-0.059368462
-0.057214523
-0.05341538
-0.049284747
-0.04641183
-0.048088225
-0.048232747
-0.049056403
-0.050287025
-0.051720652
-0.053223212
-0.054678324
-0.0559646
-0.05690807
-0.057270916
-0.056789124
-0.055313694
-0.053052806
-0.050660299
-0.048877197
-0.049721394
-0.049728685
-0.050209405
-0.05101398
-0.052004591
-0.053067936
-0.054091535
-0.054958631
-0.055533199
-0.055672372
-0.055255985
-0.054272375
-0.052880725
-0.05142784
-0.050295518
-0.050752243
-0.050720876
-0.051010683
-0.051540983
-0.05222098
-0.052959819
-0.053667255
-0.054242895
-0.054592597
-0.054635681
-0.054321089
-0.053669269
-0.052789735
-0.051880052
-0.051152148
-0.051419734
-0.051378322
-0.051557416
-0.051911842
-0.052378475
-0.05288624
-0.053366322
-0.053745372
-0.053960339
-0.053962571
-0.053741521
-0.053306094
-0.052740068
-0.052161411
-0.051692461
-0.051845062
-0.051808044
-0.051922975
-0.052163377
-0.052484935
-0.052834666
-0.053159983
-0.053411355
-0.053546477
-0.053537225
-0.053370968
-0.053082971
-0.052714606
-0.052340084
-0.052033101
-0.052113897
-0.052084923
-0.052163063
-0.052331192
-0.052556984
-0.052799328
-0.053020642
-0.053188209
-0.05327335
-0.053259466
-0.053144031
-0.052948669
-0.052703984
-0.052454432
-0.052244862
-0.052283071
-0.052260775
-0.052316048
-0.052437816
-0.052602415
-0.052776227
-0.052930981
-0.053044768
-0.053098694
-0.053083595
-0.053002914
-0.052868166
-0.052700892
-0.052527847
-0.05237824
-0.052386943
-0.052366571
-0.052406683
-0.05250005
-0.052627906
-0.052760927
-0.052876027
-0.052957602
-0.052993212
-0.052978068
-0.052919362
-0.052822981
-0.052702581
-0.052574879
-0.052461361
-0.052438221
-0.052417005
-0.0524491
-0.052528739
-0.052638996
-0.0527525
-0.052849021
-0.052915647
-0.052942961
-0.052927826
-0.052879874
-0.052803249
-0.05270514
-0.052598591
-0.052502704
-0.01079667
-0.061004325
-0.029039747
-0.018215653
-0.052759689
-0.072922016
-0.15403921
-0.065191309
0.037188137
-0.064652879
-0.15891191
-0.32464793
-0.069361714
0.19558073
0.05828719
-0.016183209
-0.036101834
-0.036703917
-0.039376566
-0.052930381
-0.062986561
-0.077141529
-0.062500256
-0.047132272
-0.07462358
-0.10978697
-0.13628844
-0.064251419
0.017648533
0.0079175885
-0.027629344
-0.035909305
-0.040322219
-0.044650437
-0.051255343
-0.056832436
-0.061708309
-0.061368144
-0.061918068
-0.072019011
-0.083381718
-0.084892453
-0.058777473
-0.028136184
-0.021621383
-0.036645999
-0.039946181
-0.043303339
-0.046803775
-0.050805237
-0.054490702
-0.057717911
-0.059900808
-0.062453919
-0.066751134
-0.069901709
-0.06741405
-0.055763854
-0.042273834
-0.036188475
-0.042552239
-0.043763912
-0.045823228
-0.048286705
-0.051001741
-0.053655749
-0.056112124
-0.058283056
-0.060349459
-0.062256217
-0.062758604
-0.060251905
-0.054250657
-0.047495912
-0.043414505
-0.04623232
-0.046621388
-0.047828396
-0.049486701
-0.051376203
-0.053313596
-0.05516723
-0.0568339
-0.058207542
-0.059042524
-0.058783255
-0.056894463
-0.053493456
-0.049784064
-0.047194958
-0.048525962
-0.048602735
-0.049307057
-0.050411534
-0.051737
-0.053137151
-0.054481599
-0.055661394
-0.056527762
-0.05688543
-0.056473595
-0.055159655
-0.053115646
-0.050937648
-0.049295197
-0.049969844
-0.049950081
-0.050370355
-0.051103641
-0.05202506
-0.053022175
-0.053976176
-0.054780619
-0.055313804
-0.055456269
-0.05508107
-0.054198141
-0.052924203
-0.051582991
-0.050526082
-0.050900603
-0.050857765
-0.051114624
-0.051604213
-0.052242033
-0.052938856
-0.053602347
-0.05413817
-0.054465558
-0.054515617
-0.054222918
-0.0536324
-0.052818472
-0.051970834
-0.051287362
-0.051512532
-0.05146339
-0.051627869
-0.051960445
-0.05239837
-0.052876676
-0.053325984
-0.053683136
-0.05388826
-0.053896466
-0.05368936
-0.053286692
-0.05276125
-0.052221028
-0.051778229
-0.051907908
-0.051865286
-0.051972747
-0.052199996
-0.052501359
-0.052832902
-0.05313854
-0.053377788
-0.053508
-0.053498968
-0.053345108
-0.053075657
-0.052733178
-0.052382064
-0.052088281
-0.052156132
-0.052124555
-0.052198076
-0.052357603
-0.052571222
-0.052801545
-0.053009421
-0.053168925
-0.053250696
-0.053238062
-0.053127974
-0.05294622
-0.052718811
-0.052484407
-0.052283731
-0.052317116
-0.052290943
-0.052341252
-0.052456887
-0.052614703
-0.052780304
-0.052925247
-0.053032046
-0.053081894
-0.053066966
-0.052991305
-0.052868308
-0.052714748
-0.052553497
-0.052411251
-0.052418943
-0.052391168
-0.052424839
-0.052513568
-0.052638092
-0.052765254
-0.052872909
-0.052947266
-0.052977373
-0.052960268
-0.052908687
-0.052825281
-0.052718033
-0.052600563
-0.052493249
-0.052469084
-0.052438257
-0.052463672
-0.052539934
-0.052648381
-0.052756908
-0.052846514
-0.052905424
-0.052926663
-0.05290857
-0.052869513
-0.05280795
-0.052722387
-0.052624426
-0.052533025
-0.024657128
-0.058937828
-0.032192761
-0.011737545
-0.044796111
-0.059315807
-0.080626486
-0.057678647
-0.033622893
-0.089010571
-0.1274099
-0.19194689
-0.070855768
0.075950528
0.016359829
-0.027306196
-0.042892724
-0.038421096
-0.033926153
-0.04567834
-0.055426863
-0.063809737
-0.059085898
-0.05639127
-0.07682336
-0.097600316
-0.1088205
-0.062921012
-0.0094973747
-0.011889008
-0.0339666
-0.04019037
-0.041672828
-0.042855015
-0.048272009
-0.05372158
-0.05809547
-0.059266795
-0.061709664
-0.070264889
-0.078152728
-0.077663885
-0.058372182
-0.036066272
-0.030216489
-0.039907645
-0.042272624
-0.04430817
-0.046495828
-0.049805834
-0.053236489
-0.056265162
-0.058554995
-0.06124157
-0.065055384
-0.067445842
-0.065030664
-0.055738659
-0.045124562
-0.039962585
-0.044194222
-0.045022436
-0.046514817
-0.048405173
-0.050723561
-0.053135585
-0.055408845
-0.057456897
-0.059423761
-0.061154464
-0.061544714
-0.059328785
-0.05429576
-0.048674803
-0.045132296
-0.047071961
-0.047301006
-0.04825066
-0.049643557
-0.051320778
-0.053085431
-0.054781016
-0.056333059
-0.057621469
-0.058396955
-0.058162094
-0.056484844
-0.053528983
-0.05030454
-0.048001574
-0.048965108
-0.048983654
-0.049573143
-0.050546238
-0.051750777
-0.053033762
-0.0542764
-0.055374627
-0.056183583
-0.056518293
-0.056157093
-0.054964843
-0.053138052
-0.051185466
-0.049694104
-0.050207687
-0.050166829
-0.050534241
-0.051200042
-0.052054819
-0.052974618
-0.053867612
-0.054620298
-0.055117806
-0.055246365
-0.054922919
-0.054103646
-0.052938646
-0.051709049
-0.050733609
-0.051035414
-0.050984477
-0.051215821
-0.051669317
-0.052269269
-0.052919932
-0.05354638
-0.054051504
-0.054357906
-0.054396869
-0.05414392
-0.053588244
-0.052830611
-0.052039986
-0.051400286
-0.051592923
-0.051541894
-0.05169279
-0.05200462
-0.052418906
-0.05287294
-0.053300024
-0.053639893
-0.053835209
-0.053838838
-0.053642495
-0.053264836
-0.052771519
-0.05226256
-0.051843456
-0.051956397
-0.051914211
-0.052015569
-0.052231922
-0.052519193
-0.052832116
-0.053121173
-0.05334767
-0.053470707
-0.053462824
-0.053323487
-0.053064873
-0.052740215
-0.052408726
-0.052131711
-0.052191735
-0.052159291
-0.052228049
-0.052380058
-0.05258459
-0.052803238
-0.053001978
-0.053154176
-0.053231061
-0.05321629
-0.053118383
-0.052943266
-0.052726753
-0.052504254
-0.052314076
-0.052345477
-0.052317601
-0.052363479
-0.052473214
-0.052624576
-0.052783334
-0.052922501
-0.053024817
-0.053071737
-0.053054979
-0.052983929
-0.052867748
-0.052722499
-0.052570113
-0.052435935
-0.052442185
-0.052412794
-0.052442484
-0.052526346
-0.052645925
-0.052768899
-0.052872452
-0.052943574
-0.052971675
-0.052954333
-0.052899996
-0.052824473
-0.052724907
-0.052615414
-0.05251566
-0.052488999
-0.052456646
-0.052478582
-0.052550782
-0.052655265
-0.05276105
-0.052847223
-0.052903123
-0.052922613
-0.052905952
-0.05285896
-0.052805668
-0.052728273
-0.052638382
-0.052554657
-0.028106903
-0.12962048
-0.044219223
0.048970336
-0.021765573
-0.038892511
-0.053015625
-0.052338792
-0.053678287
-0.076884771
-0.10154605
-0.11552196
-0.081074116
-0.032350588
-0.01047651
-0.034250144
-0.056435642
-0.043153058
-0.025447429
-0.038701743
-0.047064463
-0.052510095
-0.054858834
-0.059943261
-0.073015543
-0.084650123
-0.086521467
-0.065699833
-0.039721479
-0.028533929
-0.038539983
-0.044464071
-0.043929232
-0.042073039
-0.04632993
-0.05047676
-0.053778997
-0.056743793
-0.061189027
-0.067864211
-0.072545826
-0.070713156
-0.059006008
-0.045056374
-0.037799113
-0.042409418
-0.044257399
-0.045562044
-0.04678149
-0.049327519
-0.052016225
-0.05454266
-0.057164985
-0.060268541
-0.063529576
-0.064985495
-0.062601381
-0.055814432
-0.048006538
-0.043206092
-0.045472775
-0.046068114
-0.047240391
-0.048730717
-0.050647629
-0.052672095
-0.054685832
-0.056718249
-0.058715362
-0.060256619
-0.060405895
-0.058365207
-0.054251064
-0.049677623
-0.046521554
-0.04771424
-0.047870391
-0.048679753
-0.049885511
-0.051352089
-0.052918876
-0.054475089
-0.055954076
-0.057199257
-0.057896492
-0.057612996
-0.05606601
-0.053481985
-0.050684569
-0.048614533
-0.049289223
-0.049289558
-0.049817124
-0.050699169
-0.05179506
-0.05297695
-0.054139117
-0.055179007
-0.055949067
-0.056249504
-0.055878437
-0.054764775
-0.053100757
-0.051337627
-0.049974541
-0.050379052
-0.050332942
-0.050673131
-0.051295705
-0.052094091
-0.052960637
-0.053802014
-0.054517776
-0.054993255
-0.055109244
-0.054779888
-0.053998679
-0.052911262
-0.05177438
-0.050872716
-0.051127827
-0.051076165
-0.051297052
-0.051730699
-0.052300813
-0.052919819
-0.053513603
-0.053998793
-0.054294305
-0.054328545
-0.054071554
-0.053533192
-0.05281408
-0.052071512
-0.051473581
-0.051641589
-0.051595824
-0.051741961
-0.052042763
-0.052442238
-0.052874373
-0.053286044
-0.053612821
-0.053798837
-0.053798914
-0.053606621
-0.053239858
-0.052765157
-0.052278622
-0.051880299
-0.051986972
-0.051949135
-0.052046465
-0.052254582
-0.052532093
-0.052839455
-0.05311906
-0.0533376
-0.05345446
-0.053443991
-0.053302824
-0.053054372
-0.052739704
-0.052418028
-0.052152036
-0.052215123
-0.052184882
-0.052250106
-0.052395887
-0.052593621
-0.052807405
-0.053001725
-0.053148904
-0.053222016
-0.053206212
-0.053107587
-0.052938959
-0.052728684
-0.052512961
-0.052331902
-0.052365551
-0.05233752
-0.052380425
-0.052485375
-0.052630972
-0.052785588
-0.052923056
-0.053022824
-0.053067257
-0.053048849
-0.052978794
-0.052866086
-0.052724465
-0.052577262
-0.052451435
-0.052457454
-0.052428691
-0.052457189
-0.052537421
-0.052651512
-0.052770774
-0.052873675
-0.052944173
-0.052971216
-0.052952234
-0.052899621
-0.052823247
-0.052724192
-0.052618316
-0.052525525
-0.05249949
-0.052470407
-0.052492702
-0.052561507
-0.052660062
-0.052762543
-0.052848881
-0.052905931
-0.052925916
-0.052908701
-0.052862984
-0.052804086
-0.052724395
-0.052636895
-0.052559037
0.02128647
-0.049860756
-0.07377939
-0.037143321
-0.033018321
-0.042199408
-0.023987337
-0.03569819
-0.061874912
-0.080745717
-0.085665402
-0.080371898
-0.075276372
-0.099527614
-0.032694235
-0.026570384
-0.044203048
-0.050496882
-0.043859251
-0.04589344
-0.046375224
-0.042545019
-0.048534788
-0.060519648
-0.071910977
-0.076692674
-0.073716807
-0.064950571
-0.057186193
-0.037077144
-0.038360084
-0.043415181
-0.04665316
-0.047085926
-0.049111674
-0.049939539
-0.050295587
-0.054211809
-0.060609845
-0.066651177
-0.068924286
-0.065925229
-0.058361265
-0.049731242
-0.041235276
-0.043065447
-0.044767588
-0.046841466
-0.048485955
-0.050355319
-0.051809706
-0.053350628
-0.056161736
-0.059781284
-0.062770482
-0.063380608
-0.060690744
-0.055258956
-0.049206629
-0.044539397
-0.0459318
-0.046546257
-0.047885233
-0.049418973
-0.051066091
-0.052637992
-0.054298739
-0.056335438
-0.058439263
-0.059847002
-0.059683666
-0.057547581
-0.053877934
-0.049927497
-0.047008169
-0.047946881
-0.048153676
-0.049012615
-0.050204198
-0.051556981
-0.05293797
-0.054362572
-0.055812424
-0.057058962
-0.057688273
-0.057277671
-0.055694909
-0.053257695
-0.050697593
-0.048787131
-0.049402602
-0.049440484
-0.049989458
-0.050858055
-0.051902923
-0.053010723
-0.054117989
-0.055132744
-0.055884243
-0.056143102
-0.055717481
-0.054583992
-0.052968567
-0.051303415
-0.050029282
-0.050430934
-0.050410257
-0.050763046
-0.05137951
-0.052154309
-0.052990988
-0.053806162
-0.054505175
-0.054965638
-0.055058149
-0.054698967
-0.053905958
-0.052836177
-0.051742585
-0.050886019
-0.051150934
-0.051115324
-0.051344808
-0.051776965
-0.05233565
-0.052942123
-0.05352352
-0.053998521
-0.05428358
-0.054304695
-0.05403043
-0.05348469
-0.052772473
-0.052050008
-0.051474888
-0.051652683
-0.051617359
-0.051769063
-0.052069729
-0.052466477
-0.052890005
-0.053296192
-0.053616266
-0.053794483
-0.053786733
-0.053587733
-0.053215607
-0.052742231
-0.052265162
-0.051881504
-0.051996134
-0.051962568
-0.052062329
-0.052270026
-0.052545362
-0.052853307
-0.053129326
-0.05334353
-0.053455244
-0.053439938
-0.053292945
-0.053042288
-0.052727185
-0.052409621
-0.052151724
-0.052221739
-0.052193671
-0.052260007
-0.052405673
-0.05260271
-0.052816964
-0.053009429
-0.053153742
-0.053223393
-0.053204816
-0.053102416
-0.052933207
-0.052722888
-0.052509795
-0.05233359
-0.052369844
-0.052343357
-0.052387084
-0.05249214
-0.052637691
-0.052792246
-0.052929092
-0.053027236
-0.05306962
-0.05304932
-0.052976812
-0.052863035
-0.052721087
-0.052575468
-0.052452732
-0.052459093
-0.052432668
-0.052462295
-0.052542574
-0.052656485
-0.052775491
-0.052878741
-0.052949132
-0.052975567
-0.052954972
-0.052900406
-0.052821023
-0.052720505
-0.052615166
-0.052524421
-0.052499523
-0.05247343
-0.052496822
-0.052565387
-0.052663518
-0.052765846
-0.05285369
-0.052911805
-0.052931747
-0.052912637
-0.052865598
-0.052801949
-0.052719944
-0.052632535
-0.052556262
0.003094316
-0.031462864
-0.061668361
-0.061927419
-0.086733407
-0.054701635
-0.0010041793
-0.023110049
-0.055343905
-0.084173679
-0.08282544
-0.069695465
-0.067909581
-0.078317437
-0.034774821
-0.026862226
-0.038441801
-0.051305701
-0.057071639
-0.064296415
-0.050595713
-0.033581665
-0.043374529
-0.060233953
-0.073841739
-0.075271326
-0.067833762
-0.059476829
-0.052128935
-0.03622522
-0.037340153
-0.042048292
-0.048135992
-0.052309436
-0.055076045
-0.051540483
-0.047950346
-0.052916234
-0.061309419
-0.06784136
-0.06835617
-0.06314434
-0.055299013
-0.047327196
-0.039901716
-0.042380961
-0.044475463
-0.047665185
-0.050426829
-0.052347697
-0.052526492
-0.05299625
-0.056139019
-0.060454245
-0.063480935
-0.063199203
-0.059431782
-0.053627239
-0.047779585
-0.043517147
-0.045533858
-0.046463281
-0.048254716
-0.050149924
-0.051789659
-0.053010615
-0.054414617
-0.056582239
-0.058906864
-0.06024527
-0.059648365
-0.056973401
-0.053023449
-0.049092948
-0.046359016
-0.04770953
-0.048099188
-0.049158522
-0.050484316
-0.051849387
-0.053149576
-0.05452722
-0.056033997
-0.057346686
-0.057918784
-0.057276828
-0.055422044
-0.052815422
-0.05023071
-0.048404866
-0.049258856
-0.049396039
-0.05003864
-0.050970448
-0.052035524
-0.053136046
-0.054246638
-0.055288208
-0.056055252
-0.056268238
-0.055726013
-0.054452958
-0.052742433
-0.051048327
-0.049806846
-0.050343921
-0.050374785
-0.05077508
-0.051426651
-0.0522206
-0.05306582
-0.053891272
-0.054601854
-0.055062587
-0.055125699
-0.054706302
-0.053842366
-0.052718788
-0.051602873
-0.05075631
-0.051098963
-0.051089735
-0.05134534
-0.051798232
-0.052371146
-0.052989019
-0.053576626
-0.054055681
-0.054338009
-0.054341772
-0.054033898
-0.053450954
-0.052709216
-0.051972771
-0.051401477
-0.051619712
-0.051599453
-0.05176644
-0.052079831
-0.052487154
-0.052918957
-0.053328887
-0.053650493
-0.053825752
-0.053807952
-0.053590019
-0.053196747
-0.052706874
-0.052222544
-0.051840988
-0.051976626
-0.051950189
-0.052058175
-0.052274076
-0.052557531
-0.052870885
-0.053151346
-0.05336637
-0.053474994
-0.053452647
-0.053295649
-0.053032083
-0.052706745
-0.052384209
-0.052125447
-0.052206868
-0.052183444
-0.052255225
-0.052406576
-0.052609148
-0.05282897
-0.053023999
-0.053168389
-0.053236215
-0.053214543
-0.05310525
-0.052928547
-0.052711926
-0.052494504
-0.052315203
-0.052356414
-0.052334055
-0.052382022
-0.052491654
-0.052641878
-0.05280044
-0.052938932
-0.053037472
-0.053079564
-0.053058194
-0.052980745
-0.052861123
-0.052714199
-0.052564368
-0.052438177
-0.052447053
-0.05242422
-0.052456944
-0.052540776
-0.052658855
-0.052780506
-0.052886154
-0.052958071
-0.052984701
-0.052962303
-0.052904034
-0.052819306
-0.052714378
-0.052605537
-0.052512448
-0.052489059
-0.052465464
-0.052490947
-0.052562405
-0.052664657
-0.052768923
-0.052860365
-0.052920572
-0.052940092
-0.052917493
-0.052867758
-0.052799519
-0.052713915
-0.052624019
-0.052546457
-0.013114618
-0.014970285
-0.055592878
-0.094846675
-0.2277959
-0.055155913
0.12055308
-0.011035147
-0.064366944
-0.095638429
-0.098943395
-0.068850754
-0.047412438
-0.034195972
-0.029182553
-0.025703365
-0.034792681
-0.052016326
-0.068749524
-0.09042948
-0.053098371
-0.015992542
-0.041839008
-0.067000644
-0.083607492
-0.082072672
-0.065708026
-0.048728532
-0.034179965
-0.026610615
-0.034476578
-0.040489659
-0.048828496
-0.056071488
-0.060857172
-0.053153702
-0.046369306
-0.054507324
-0.065819073
-0.073400734
-0.071743683
-0.062029011
-0.049824364
-0.039133967
-0.033767975
-0.040349409
-0.043529428
-0.047851035
-0.051615708
-0.053936067
-0.053440583
-0.053605047
-0.057745167
-0.063107631
-0.066369988
-0.064900702
-0.058930426
-0.050971058
-0.043910918
-0.040170199
-0.044329006
-0.045855665
-0.048204573
-0.050509705
-0.052331474
-0.053525456
-0.055062196
-0.057657759
-0.060374449
-0.06170835
-0.060491525
-0.05675747
-0.051762316
-0.047238912
-0.04461675
-0.047038857
-0.047718541
-0.049058074
-0.050587218
-0.052062133
-0.053451185
-0.054959959
-0.056663896
-0.058126326
-0.058650209
-0.057693406
-0.05533214
-0.052218547
-0.049332497
-0.04750572
-0.048886143
-0.049161448
-0.049942734
-0.050986283
-0.052130869
-0.053308687
-0.054509782
-0.055645302
-0.056467422
-0.056638851
-0.055932668
-0.054410284
-0.052453871
-0.050604323
-0.049338203
-0.0501403
-0.050232574
-0.050702817
-0.051419498
-0.052267926
-0.053167611
-0.054045112
-0.054800286
-0.055280463
-0.055314519
-0.054810277
-0.053822008
-0.052574315
-0.051374304
-0.050505295
-0.050986351
-0.051005199
-0.051298034
-0.051788524
-0.05239541
-0.053052316
-0.053663431
-0.054164451
-0.054453447
-0.054440209
-0.054085487
-0.053438216
-0.052632963
-0.051851988
-0.051262966
-0.051550623
-0.051546441
-0.051735365
-0.052071469
-0.052495731
-0.052953529
-0.053379496
-0.053711297
-0.053888249
-0.053860546
-0.05361634
-0.053188981
-0.052666732
-0.052158099
-0.051761838
-0.051928876
-0.051911328
-0.052031423
-0.052262515
-0.052563163
-0.052886477
-0.053180546
-0.053402813
-0.053512534
-0.053482678
-0.05331125
-0.053028214
-0.052683589
-0.052345258
-0.052077787
-0.052173031
-0.052155517
-0.052235254
-0.052396394
-0.0526101
-0.052841009
-0.0530425
-0.053190644
-0.053259846
-0.053235863
-0.053116398
-0.052927404
-0.052698521
-0.052469138
-0.052280173
-0.052329708
-0.052312035
-0.052365901
-0.052483011
-0.052641707
-0.052809064
-0.052951187
-0.053052672
-0.053096368
-0.053074298
-0.052989501
-0.052861115
-0.05270544
-0.052546532
-0.052412295
-0.052426025
-0.052405347
-0.052441785
-0.052531734
-0.052657589
-0.052784719
-0.052895065
-0.052970275
-0.052997082
-0.052971517
-0.052908193
-0.05281814
-0.052707282
-0.052592591
-0.052494805
-0.052471541
-0.052447405
-0.052475296
-0.052552552
-0.052663323
-0.052770035
-0.05286741
-0.052930897
-0.052949041
-0.052920672
-0.052867826
-0.05279749
-0.052707928
-0.052614351
-0.052534397
-0.0074815852
-0.039460934
-0.060835076
-0.074850983
-0.097999835
-0.056303706
-0.011348674
-0.04426112
-0.096043545
-0.15040477
-0.11864219
-0.056873522
-0.043731276