/*--------------------------------*- C++ -*----------------------------------*\
| =========                 |                                                 |
| \\      /  F ield         | OpenFOAM: The Open Source CFD Toolbox           |
|  \\    /   O peration     | Version:  3.0.1                                 |
|   \\  /    A nd           | Web:      www.OpenFOAM.org                      |
|    \\/     M anipulation  |                                                 |
\*---------------------------------------------------------------------------*/
FoamFile
{
    version     2.0;
    format      ascii;
    class       surfaceScalarField;
    location    "0.1";
    object      phi;
}
// * * * * * * * * * * * * * * * * * * * * * * * * * * * * * * * * * * * * * //

dimensions      [0 3 -1 0 0 0 0];

internalField   nonuniform List<scalar> 
9450
(
0.12677535
0.019461311
0.0032152027
0.11540599
0.0064016594
-0.046255204
0.11419641
-0.018759944
-0.055111235
0.082196023
-0.025114166
0.092887771
0.12756176
0.0092535614
0.021865477
0.2541301
0.0088775325
-0.10610352
0.36900055
-0.01635654
-0.048448252
0.36770696
0.00067251047
-0.014076465
0.28882989
0.013442279
0.019936987
0.27717605
-0.02745007
-0.017756729
0.38529341
-0.088950357
-0.033353306
0.97664407
-0.25923373
-0.10579902
0.91218416
0.01712116
0.08949227
0.26584581
0.28471781
0.19271362
0.075909345
0.0069895336
0.040183543
0.025309127
-0.0092705089
0.033510144
0.00744559
-0.017659795
0.007496209
-0.0070354125
-0.015576296
-0.016238505
-0.0072913972
0.015784682
0.0035440816
0.0080920637
0.013172141
0.025611725
0.010923901
-0.010276514
0.024559446
0.0012757457
-0.0091106646
0.02848363
-0.0039484304
-0.0068669062
0.040830213
-0.011665532
-0.0048862767
0.034819245
-0.03236175
-0.012377827
0.0013344667
-0.058102655
-0.0098120456
-0.14600721
-0.077777421
0.00037230911
-0.14177582
0.0047421426
0.035624849
0.01936389
0.08522907
0.034651258
0.054961115
-0.0036992952
0.02229473
0.020389137
-0.0042258227
0.019016536
0.0088412231
-0.0067653241
0.0072191207
0.00059619239
-0.0053563862
-0.00089905517
3.1533155e-05
0.0031506075
0.0063416028
0.0050397603
0.0059062329
0.015918459
0.0055176426
0.0013313184
0.019244977
0.00044492441
-0.0015010648
0.020675488
-0.0059576826
-0.0037970906
0.020081667
-0.013989997
-0.0056012588
0.0090406735
-0.02471403
-0.00710779
-0.018381979
-0.033433661
-0.0036435675
-0.063851175
-0.03024228
0.0045909341
-0.06163638
0.0018748705
0.013272459
-0.010897872
0.033045122
0.010011862
0.03229192
-0.00026213377
0.01074637
0.014168045
-0.0010317671
0.010773516
0.0081789169
-0.0022569464
0.0066537629
0.0035276817
-0.0018065465
0.004103126
0.0022037888
0.00075896874
0.0068187723
0.0029312596
0.0022539914
0.010848324
0.0020455851
0.0012692898
0.012841095
-0.0012683653
-0.00043317325
0.012641485
-0.0059059441
-0.0022106864
0.009361111
-0.011281846
-0.0035447354
0.00032863674
-0.016540951
-0.0037992704
-0.015176166
-0.018815659
-0.0017536747
-0.031757765
-0.013839814
0.0021118156
-0.030489842
0.00091554212
0.0051508591
-0.011633045
0.015069933
0.0042434186
0.018264742
0.0010932637
0.0047589886
0.009287362
9.2160142e-05
0.0061233067
0.0065016135
-0.00055161652
0.005329019
0.0039018613
-0.00050959168
0.004827975
0.0024711777
0.00023572577
0.0059323169
0.0017314945
0.00076516032
0.0075349496
0.00045796396
0.00046254326
0.0082036727
-0.001884952
-0.00036630763
0.0072659088
-0.0049179992
-0.001316755
0.00410411
-0.0080805236
-0.0019899033
-0.0019427427
-0.0105042
-0.0019731158
-0.010198095
-0.010672405
-0.00093228272
-0.017009925
-0.006959224
0.00082106911
-0.016342824
0.00047270299
0.002149354
-0.0084349236
0.0075812866
0.0021015125
0.010384354
0.0010961189
0.0019744608
0.0059705359
0.00034252417
0.0035242075
0.0047466686
1.9573854e-06
0.0038980662
0.0032718619
-8.4004225e-05
0.0040873149
0.0020848753
8.6185107e-05
0.0046584038
0.0010892209
0.00021948817
0.0051922842
-0.00015306065
6.4729149e-05
0.0051710711
-0.0017989295
-0.00032443022
0.0041039427
-0.0037016572
-0.00077983212
0.0016815573
-0.0054870011
-0.001082567
-0.0021096952
-0.006552973
-0.0010104584
-0.0064849558
-0.0061334173
-0.0004858388
-0.0095809777
-0.0037308785
0.00032415429
-0.0092370592
0.00024156221
0.00096042259
-0.0056315291
0.0040438215
0.0010827184
0.0059999392
0.00077290013
0.00075119598
0.003792971
0.00030998629
0.0020497975
0.0032926077
0.00013275292
0.0027110609
0.002456258
4.3033341e-05
0.0030914327
0.0015785194
4.6563038e-05
0.0034161133
0.00069240222
4.4481372e-05
0.0035466821
-0.00030381245
-5.8912825e-05
0.0032687085
-0.0014465948
-0.00024572615
0.0023190785
-0.0026406995
-0.00045944734
0.00061612075
-0.003630463
-0.00057989794
-0.0016897558
-0.0040700517
-0.00051437758
-0.0040827899
-0.003606345
-0.00025032186
-0.0056098948
-0.0020969359
0.00013728912
-0.0054361165
0.00013014315
0.00045956173
-0.0036756404
0.002260282
0.00057733998
0.003540076
0.00050298363
0.00025113542
0.0024145517
0.00022839399
0.0012136876
0.0022191725
0.00012940985
0.0018333684
0.0017403643
6.522423e-05
0.0022052567
0.0011317737
3.1738969e-05
0.0024198743
0.00045384661
-2.9240884e-06
0.0024040521
-0.00028692777
-7.5076705e-05
0.0020748721
-0.0010696853
-0.00017162493
0.0013296412
-0.0018184195
-0.00026887566
0.0001767728
-0.002370441
-0.0003106533
-0.0012259524
-0.0025364537
-0.00026132447
-0.0025736889
-0.0021666854
-0.00012590959
-0.0033834842
-0.0012284304
6.0949387e-05
-0.0033065941
6.3633349e-05
0.00022997626
-0.0023959983
0.0013119111
0.00031937403
0.0021480846
0.00031795887
5.5895664e-05
0.0015414177
0.00014997014
0.00073501231
0.0014687814
9.9532753e-05
0.0012248149
0.0011921069
5.735217e-05
0.0015273004
0.00078959333
2.3172826e-05
0.0016791361
0.00031171277
-1.1012939e-05
0.0016213628
-0.00022441436
-6.0103898e-05
0.0013262962
-0.0007568673
-0.00011336537
0.0007778102
-0.0012224543
-0.00015567149
1.0864915e-05
-0.0015329061
-0.00016772567
-0.00085620887
-0.0015926021
-0.00013611239
-0.0016356145
-0.0013211537
-6.1592291e-05
-0.0020917578
-0.00074226618
3.2637014e-05
-0.0020586135
2.8106841e-05
0.00012372092
-0.0015598913
0.00078428855
0.00018021901
0.0013292427
0.00018792901
-1.6684677e-05
0.00098440988
9.9924076e-05
0.00045840253
0.00096030854
7.5562116e-05
0.00082232792
0.00079097627
4.4611858e-05
0.001049416
0.00052396751
1.4659626e-05
0.0011430322
0.0001983386
-1.0978657e-05
0.0010889436
-0.00015051113
-3.7124669e-05
0.00086079025
-0.00050442096
-6.7087233e-05
0.00046745333
-0.00079712505
-9.1200687e-05
-4.8789498e-05
-0.00097401342
-9.6198157e-05
-0.00058478971
-0.00098387342
-7.147897e-05
-0.0010568124
-0.0008094986
-2.7130531e-05
-0.0013215476
-0.0004439708
2.698863e-05
-0.001302572
2.1394816e-05
7.4707225e-05
-0.0010149672
0.00047605414
0.00010294563
0.00081436414
0.00011034143
-4.0764412e-05
0.0006096395
6.7212711e-05
0.0002890994
0.00061653153
5.9660432e-05
0.00055533315
0.00052282312
4.1609793e-05
0.00072378671
0.00035425302
2.0447223e-05
0.00079419246
0.00013774656
2.6132772e-06
0.00073504601
-0.00010183697
-2.6223235e-05
0.00056812142
-0.00033137905
-4.3821192e-05
0.00029060762
-0.00051673938
-5.9387802e-05
-5.8633188e-05
-0.00062027404
-6.2135021e-05
-0.00041043157
-0.00060823728
-4.3521995e-05
-0.00069131765
-0.00048290075
-1.5893957e-05
-0.00085625388
-0.00026156663
1.8406881e-05
-0.00084797515
2.3085948e-05
4.6875515e-05
-0.00067666864
0.00030014721
6.5397737e-05
0.00050328759
7.595158e-05
-3.3865726e-05
0.00038902315
5.969401e-05
0.00019540461
0.00039372531
5.130777e-05
0.00038677352
0.00033615596
3.8008762e-05
0.00050728665
0.00022977368
2.2501311e-05
0.00055462059
9.2214812e-05
9.0921171e-06
0.00050551629
-6.4644546e-05
-1.2135723e-05
0.00038278267
-0.00020829476
-2.6550992e-05
0.00018709481
-0.00032555932
-3.9830254e-05
-4.659033e-05
-0.00038969858
-4.4418458e-05
-0.00028510675
-0.00038103951
-3.7626142e-05
-0.0004700018
-0.00029726894
-1.6917841e-05
-0.00057163971
-0.0001565175
6.1997281e-06
-0.0005709483
1.9553023e-05
2.6241215e-05
-0.00047353918
0.00019072847
4.3114992e-05
0.00032271463
6.0397399e-05
-2.9161283e-05
0.00025058702
4.7600971e-05
0.00013784007
0.00024680198
4.2542386e-05
0.00028039466
0.00020906339
3.3710026e-05
0.0003697291
0.00014344967
2.2647117e-05
0.00039776401
6.1557917e-05
1.2459568e-05
0.000361869
-3.6138417e-05
-2.0850115e-06
0.00026552474
-0.00012578288
-1.7545621e-05
0.0001229631
-0.00019908224
-2.9258993e-05
-3.7928816e-05
-0.00023854356
-3.3355062e-05
-0.00020133904
-0.00023621658
-3.1299008e-05
-0.00032925434
-0.00018235245
-1.7916544e-05
-0.00039558213
-9.0677582e-05
-4.5724018e-07
-0.00039978525
1.7060522e-05
1.4904152e-05
-0.00034155673
0.00012170348
2.8617366e-05
0.00020982303
4.2985543e-05
-3.2945513e-05
0.00012785465
2.824563e-05
0.00010010302
0.00012291
3.0093186e-05
0.00021478178
0.00010385681
2.6691852e-05
0.00028783722
7.1952621e-05
1.9512378e-05
0.00030006769
3.3161617e-05
1.0530149e-05
0.0002722247
-1.5775539e-05
1.8970851e-06
0.00019222679
-6.2811294e-05
-1.2477348e-05
8.3503854e-05
-9.8560602e-05
-2.0515334e-05
-3.5601035e-05
-0.00011669023
-2.207692e-05
-0.00014747476
-0.00011635521
-1.8878012e-05
-0.00023757942
-8.9384823e-05
-1.1704913e-05
-0.00028784754
-4.0963622e-05
-1.2617802e-06
-0.00029514613
1.0682591e-05
8.2217157e-06
-0.0002534382
6.1219807e-05
1.6205312e-05
0.0001071066
2.1708626e-05
-3.7881096e-05
1.4469335e-05
8.1027677e-05
2.1282757e-05
0.00018282824
2.0823714e-05
0.00024897919
1.5204413e-05
0.00025106176
5.9700263e-06
0.00022512691
8.134309e-07
0.00015643435
-9.2503932e-06
6.5356236e-05
-1.3647787e-05
-3.5256976e-05
-1.3418367e-05
-0.00012047096
-8.4107151e-06
-0.00018910488
-4.5155979e-06
-0.00023613697
-9.8089804e-07
-0.00024454269
4.437804e-06
-0.00020749418
8.767444e-06
8.2066631e-06
0.46713984
0.0069726222
-0.093175247
0.37917072
0.035008598
0.0066503886
0.2768761
0.02076959
0.026398945
0.54564556
-0.10223838
-0.073649289
0.53796582
0.00057757302
0.028923869
0.21294215
0.10473559
0.11416386
0.133911
0.022994003
0.0075508827
0.11295246
0.0078917738
-0.0010327799
0.13603657
-0.011387545
0.0082407037
0.15638881
-0.022064918
-0.016048648
0.17465239
-0.065387993
0.013781131
-0.013973381
-0.15307276
0.23590189
-0.13964437
-0.036791645
0.25191738
0.11894806
0.12664054
-0.19250507
0.065227892
-0.31716136
0.031888177
0.030352978
-0.024643444
0.035673018
0.018340724
-0.0047736757
0.038849314
0.0031774746
-0.0011567838
-0.018731238
-0.019923116
-0.0089289075
-0.019768443
0.00083331073
0.013930673
0.026754936
0.022537897
0.025411351
0.026745356
0.0088935762
0.0050085787
0.030395833
-0.00087749087
-0.0018468716
0.033315607
-0.012381975
-0.0068171334
0.037350307
-0.027094415
-0.011334907
0.011465675
-0.051927337
0.0026246698
-0.11104645
-0.073561944
0.043317515
-0.14300079
-0.017612185
0.048393193
-0.018970795
0.060589978
-0.023380895
0.058388827
-0.055834492
0.019755319
0.023584652
-0.0054420132
0.02042796
0.013352092
-0.0024085174
0.015722871
0.0041476084
-0.0016173565
0.001853015
-0.0023646214
-0.00051488971
0.0017677065
0.0013882204
0.0054561458
0.013087031
0.0054630506
0.0071190759
0.016950733
0.0015168311
0.0019514565
0.01887275
-0.0043705692
-0.0022299943
0.018576936
-0.011935544
-0.005754161
0.012503783
-0.021406039
-0.0066490415
-0.01015153
-0.031542445
-0.0013576119
-0.055171119
-0.032715853
0.0088435554
-0.06489158
-0.0062505275
0.011643213
-0.021169972
0.027267094
-0.00039595522
0.033646509
-0.0085668165
0.0095214465
0.015292903
-0.0004852627
0.011224442
0.0098851842
-0.00049889358
0.0092184138
0.0048251772
-0.00046118661
0.0055972186
0.0016798038
0.00035776982
0.0058343975
0.0014421279
0.0020348515
0.0091461862
0.0012398629
0.002168067
0.011064027
-0.0012007578
0.00035230545
0.011307941
-0.0050117619
-0.0018001595
0.0091071538
-0.009727239
-0.0035568568
0.0023740016
-0.014714798
-0.0037547308
-0.011311789
-0.017994203
-0.0016205782
-0.028719542
-0.01513065
0.0019007776
-0.031396546
-0.0020874932
0.0037022017
-0.014782626
0.012926637
0.0019398892
0.018268083
-0.00013065169
0.0041153475
0.0095380421
0.00057913379
0.0061654804
0.0070554792
0.0002315262
0.0060741553
0.0043276258
8.2790529e-05
0.0053572056
0.0023214853
0.00032361537
0.0056298281
0.0011855532
0.00071835861
0.0067062659
6.020147e-05
0.00057450807
0.007253403
-0.0018429874
-0.00023308295
0.0065929475
-0.004380947
-0.0012772185
0.0041210374
-0.007173081
-0.0020747641
-0.00090198269
-0.0095413576
-0.0020920376
-0.0084451441
-0.01022594
-0.0011362984
-0.015682012
-0.0074563538
0.00039178286
-0.016390655
-0.00071673242
0.0014835113
-0.0094401726
0.0065622018
0.0015166754
0.010061276
0.0010285051
0.0016339406
0.0059380851
0.00065745313
0.0034383037
0.0048775688
0.00039486161
0.0040682296
0.0033989626
0.00023358459
0.004220614
0.0020452089
0.00022300826
0.0045038042
0.00091411618
0.00023771468
0.0048032644
-0.00027677954
6.5771826e-05
0.0047157593
-0.0017202296
-0.00034163887
0.0038012912
-0.0033812089
-0.00084026619
0.0017536781
-0.0049842117
-0.0011893947
-0.0015851682
-0.0060567548
-0.0011699788
-0.0056751375
-0.0058978406
-0.00067602771
-0.0089448991
-0.0039178472
6.3050204e-05
-0.0091148745
-0.00025949224
0.00069873619
-0.0059413469
0.0035383324
0.0009574883
0.0057300494
0.00087029197
0.00057397601
0.003711443
0.00049361599
0.0019601136
0.0032893541
0.00034541391
0.0027146196
0.0024785174
0.00022368467
0.0030893877
0.0015637058
0.00014550263
0.0033127848
0.00064497282
6.9515632e-05
0.0033599626
-0.00032005106
-6.8867827e-05
0.0030550627
-0.001372537
-0.00029198944
0.0021986742
-0.0024501365
-0.00053185995
0.00068163254
-0.0033611896
-0.00067858286
-0.0014257518
-0.0038169668
-0.00064250178
-0.0036952736
-0.0034819103
-0.0003875555
-0.0052877377
-0.0021733256
-3.7743934e-06
-0.0053184177
-9.9520079e-05
0.00036222406
-0.0037500193
0.0020022716
0.00056969333
0.0033550765
0.00059215611
0.00015215485
0.0023361856
0.00032996392
0.0011495185
0.0021893683
0.00025535375
0.0017999022
0.0017325542
0.00017346211
0.0021706217
0.001123233
9.7169541e-05
0.002347766
0.00044574624
1.9178308e-05
0.0023075602
-0.00027198746
-8.1704032e-05
0.0019776679
-0.0010114642
-0.00020539037
0.0012878888
-0.0017052475
-0.00032290867
0.00022609261
-0.0022275281
-0.00038492959
-0.0010905739
-0.0024112475
-0.0003511251
-0.0023868826
-0.0021023824
-0.00021363052
-0.0032145211
-0.0012567723
-4.2627486e-06
-0.0032172434
-4.2657674e-05
0.00020297467
-0.0023974311
0.0011727386
0.00033560559
0.0020180772
0.00037178572
5.4589894e-06
0.0014914075
0.00021563713
0.00069283906
0.0014448539
0.00017863185
0.0011906454
0.0011794049
0.00012624541
0.0014931297
0.00078110139
6.8890738e-05
0.001630069
0.00031174827
1.0685546e-05
0.001568131
-0.00020144924
-6.0061189e-05
0.0012840155
-0.00071061241
-0.00013049713
0.00076576974
-0.001158009
-0.00019188217
4.2473757e-05
-0.0014614001
-0.00021954073
-0.0007817094
-0.0015279864
-0.00019347656
-0.0015414132
-0.00128671
-0.00011282209
-0.0020007064
-0.00074793182
2.4554173e-06
-0.0020021397
-2.0921798e-05
0.00011771175
-0.0015521915
0.00070701178
0.00019747134
0.0012516722
0.00023031594
-4.1046673e-05
0.00095171739
0.00015058647
0.00042745513
0.0009444298
0.000127252
0.00079237998
0.00078799543
9.2875574e-05
0.0010237841
0.00052976859
5.3603822e-05
0.0011168966
0.00021193408
1.2999284e-05
0.0010589944
-0.00013961496
-3.2383017e-05
0.00083668876
-0.00048116674
-7.8175781e-05
0.0004624627
-0.00076532759
-0.00011404245
-2.4071378e-05
-0.00093996631
-0.00012733223
-0.00054045089
-0.00095593181
-0.00011075428
-0.0010027065
-0.00079827657
-5.9457911e-05
-0.0012738437
-0.00045256398
4.4705694e-06
-0.0012743445
-6.4448619e-06
7.0347838e-05
-0.0010075762
0.00043850521
0.00012150461
0.00077998381
0.0001499216
-4.8316855e-05
0.00060212816
0.00010490733
0.00027104984
0.00060818848
9.163694e-05
0.00053417222
0.0005192315
7.0779079e-05
0.00070595497
0.00035631383
4.5002878e-05
0.00076535972
0.0001442281
1.7086495e-05
0.00071745334
-8.7750537e-05
-1.4645807e-05
0.00055255995
-0.00031411322
-4.5754129e-05
0.00028786374
-0.0004971887
-6.8900898e-05
-4.001995e-05
-0.00060256613
-7.6312559e-05
-0.00038280739
-0.00060235061
-6.3251156e-05
-0.00065702269
-0.00048393356
-3.7459366e-05
-0.0008277914
-0.00027378084
2.7066075e-06
-0.00082945738
2.4467595e-06
4.4701858e-05
-0.00066611651
0.00027786302
8.1056357e-05
0.00048773631
0.00010569668
-4.2252062e-05
0.00037693283
7.7635425e-05
0.00018210593
0.00038496364
6.8991387e-05
0.00037126654
0.00033186094
5.5339314e-05
0.00049387793
0.00022992221
3.8184944e-05
0.00053339374
9.5583439e-05
1.8953766e-05
0.0004911027
-5.4594116e-05
-4.9673991e-06
0.00036950519
-0.00019929102
-2.7788364e-05
0.00018250788
-0.0003149909
-4.4625654e-05
-3.979759e-05
-0.00037863903
-5.0549072e-05
-0.00026439966
-0.00037471676
-4.4284942e-05
-0.00044688645
-0.00029827216
-2.6070505e-05
-0.00055160035
-0.00016317822
1.5582817e-06
-0.000554076
8.2132385e-06
3.0720209e-05
-0.00045625728
0.00017622976
5.6731683e-05
0.00030530368
7.5555726e-05
-3.4219976e-05
0.00023123247
5.811636e-05
0.00012900782
0.00023435394
5.3438013e-05
0.00026933192
0.00020204637
4.4663176e-05
0.00035954171
0.00014031576
3.2317001e-05
0.00038321975
5.9628852e-05
1.7756874e-05
0.000346409
-3.2156429e-05
1.0455894e-07
0.00025381203
-0.00012071508
-1.8126068e-05
0.00011886755
-0.00019033946
-3.1028497e-05
-3.5872522e-05
-0.00022726678
-3.5981943e-05
-0.00018795697
-0.00022379727
-3.2826082e-05
-0.00031179586
-0.0001761427
-1.9285824e-05
-0.00038022153
-9.1483934e-05
1.1414725e-06
-0.00038607262
1.0376683e-05
2.2279492e-05
-0.00032718874
0.00010929077
4.0844701e-05
0.00018854622
5.4428439e-05
-3.1098038e-05
0.00011408396
4.3433779e-05
9.6701713e-05
0.00011410636
4.1665936e-05
0.00020760237
9.7994961e-05
3.548047e-05
0.00027885504
6.7649242e-05
2.5719749e-05
0.00029143472
2.8603658e-05
1.3730841e-05
0.00025785048
-1.6858897e-05
1.2127091e-06
0.00018418904
-5.9587218e-05
-1.278867e-05
8.1942475e-05
-9.1697626e-05
-2.240824e-05
-3.2402001e-05
-0.00010803657
-2.6282532e-05
-0.00014030178
-0.00010589189
-2.3912523e-05
-0.00022713658
-8.2198119e-05
-1.3609018e-05
-0.00027836434
-4.0683521e-05
1.2380055e-06
-0.00028716276
6.8999384e-06
1.7116372e-05
-0.00024793495
5.3784987e-05
3.0736639e-05
9.3608514e-05
3.9728445e-05
-3.1067719e-05
3.6055067e-05
8.0568634e-05
3.4905062e-05
0.00017720896
2.9270372e-05
0.00023974481
2.0646161e-05
0.00024590519
1.0025473e-05
0.00021506315
1.0365376e-06
0.00015203704
-9.6871735e-06
6.5585733e-05
-1.754518e-05
-3.0249263e-05
-2.1058764e-05
-0.00011657587
-1.9324554e-05
-0.00018557028
-1.096974e-05
-0.00023071837
1.2982001e-06
-0.00024021313
1.5059208e-05
-0.00020805497
2.6156224e-05
3.2685753e-05
0.12111999
0.075546039
0.061757532
0.082973743
0.023587875
0.021208008
0.13227158
-0.0067887692
-0.016084509
0.12904187
-0.037501604
-0.032903095
0.062708365
-0.014436844
0.10967308
0.084874451
0.015953735
0.076042182
0.10509044
0.020468055
-0.033134468
0.063093701
0.0070690265
0.033874059
0.17061184
-0.026456784
-0.072830604
0.27292949
-0.017342372
-0.10111275
0.40988449
-0.076565234
-0.046617816
1.2197272
-0.34568658
-0.22817233
1.8974048
-0.24038228
-0.18538637
1.2242941
0.29577497
0.18481232
0.32665408
0.22887879
0.051664997
0.049573083
0.02072994
0.03921959
0.020708626
0.010618395
0.031066407
0.0027190818
-0.0024813913
0.0039909823
-0.011511802
-0.007873933
-0.0084188589
-0.007642314
0.019563622
0.0063540594
0.0042457673
0.022372157
0.019876488
0.0058333255
0.006145095
0.025415533
-0.001263179
0.00093027436
0.028820052
-0.011322029
-0.025381477
0.051340142
-0.022412672
-0.028809417
0.052171826
-0.055924858
-0.018863517
-0.10569443
-0.10804788
-0.036382187
-0.21418608
-0.054363581
-0.029172461
-0.051124338
0.083577817
0.025740076
0.10567589
0.04287871
0.022792124
0.028549809
0.0077643908
0.021221753
0.015262243
0.0046296783
0.016825398
0.0053023495
0.00016404205
0.0078219729
-0.0014884706
-0.0015204048
0.0034317879
-0.0020342061
0.0042572133
0.0079208018
0.00050637369
0.0064106215
0.01276875
-8.3145647e-05
0.0030027943
0.015350095
-0.003941333
-0.0021649495
0.0176837
-0.0097400255
-0.0096951547
0.017796134
-0.018512742
-0.010668442
4.9490206e-05
-0.031808923
-0.0076754322
-0.05237655
-0.039673047
-0.0071926087
-0.076935106
-0.014204515
-0.0039436934
-0.029342014
0.029614774
0.0059484443
0.042103062
0.01075406
0.0095085889
0.016359574
0.003628022
0.011262915
0.010616257
0.0023585101
0.01003735
0.0053692497
0.0006962421
0.0072737233
0.0016461042
1.897531e-05
0.0059677207
0.00012506782
0.0011695633
0.007330791
-0.00035497667
0.0016709
0.0089117698
-0.0017865304
0.0004365035
0.0095517495
-0.0044890503
-0.0019402478
0.008909698
-0.0082453756
-0.0044339842
0.0045081021
-0.013052256
-0.0048441492
-0.0077909835
-0.017510781
-0.0035923504
-0.02691936
-0.016642335
-0.0020010939
-0.033159632
-0.0043084687
2.5050262e-05
-0.016853312
0.012505375
0.0027336443
0.019431231
0.0041844621
0.0037679755
0.0096169789
0.0020015255
0.0060169719
0.0072191176
0.0014113643
0.0063149621
0.0044785346
0.00069391064
0.0057517604
0.0022209089
0.00030261336
0.0054860162
0.00070471487
0.00038770833
0.0058988178
-0.00044894392
0.00030209127
0.0062094395
-0.0019517129
-0.00034276047
0.0057956033
-0.0039440258
-0.0013952042
0.0041038711
-0.0062876491
-0.0023341556
5.3647311e-05
-0.0086192667
-0.0024820733
-0.0069173758
-0.0097657749
-0.0018467629
-0.014590695
-0.0077855826
-0.00077278308
-0.01635769
-0.0015019486
0.00046603059
-0.0099283259
0.0060033514
0.0016063696
0.009903877
0.0021765377
0.0013714368
0.0057743937
0.0011878569
0.0032771038
0.0048281911
0.00090780066
0.0040576387
0.0033890844
0.0005517134
0.0042352774
0.0019676777
0.00028841959
0.0043318334
0.00074579786
0.00014706911
0.0043959506
-0.00041152244
-5.249584e-05
0.004217231
-0.0016706472
-0.00042689676
0.0034522574
-0.0030727976
-0.00092259859
0.0017731001
-0.0044733323
-0.0013069945
-0.0010912434
-0.0055291898
-0.0013479783
-0.0049362207
-0.0056093582
-0.00098470892
-0.0083093973
-0.0039847416
-0.00035360822
-0.0088562009
-0.00059607486
0.00036174004
-0.0060285259
0.0031506044
0.00096114453
0.0054520898
0.0012469825
0.00042580719
0.0035478311
0.00071671692
0.0018384122
0.003199321
0.00057996229
0.002636429
0.0024283048
0.00038768324
0.0030133723
0.0015153568
0.00021032657
0.0031744232
0.0005945944
6.1342558e-05
0.0031368783
-0.00033293856
-0.00011113149
0.0028152433
-0.0012859651
-0.00034064341
0.0020519994
-0.0022411744
-0.00058536074
0.00071771259
-0.0030674966
-0.00075134039
-0.0011708434
-0.0035255432
-0.00074313274
-0.0033115586
-0.0033079646
-0.00053446613
-0.0049218192
-0.0021738285
-0.00017116439
-0.005110995
-0.00025880018
0.00023230225
-0.0037275387
0.0017681852
0.00056176469
0.0031347348
0.00072578945
7.7556442e-05
0.0022218707
0.00043425466
0.0010676382
0.002112662
0.00037133692
0.0017236073
0.0016853489
0.00026420046
0.0020926208
0.0010949516
0.0001479978
0.0022468964
0.00043723411
3.4296061e-05
0.0021838937
-0.00025036248
-8.8457006e-05
0.0018601753
-0.00093658058
-0.00022749039
0.0012258897
-0.0015742151
-0.00035517564
0.00025989467
-0.0020621184
-0.0004327164
-0.00095310209
-0.0022535764
-0.00041404412
-0.0021775436
-0.0020015667
-0.00029245383
-0.0030073209
-0.0012500659
-7.9968961e-05
-0.0030846343
-0.00012794341
0.00014673559
-0.0023612419
0.0010345872
0.00032828064
0.001876609
0.00042701603
-3.1542665e-05
0.0014263617
0.000272852
0.00064045717
0.0013934831
0.00024173376
0.0011332906
0.0011460433
0.00018019624
0.0014349215
0.0007658169
0.0001061836
0.001559329
0.00031405703
2.9504108e-05
0.0014977052
-0.00017377688
-5.4082487e-05
0.0012226427
-0.00065829441
-0.00013871296
0.00073812076
-0.0010801668
-0.00021139637
6.8536429e-05
-0.0013691835
-0.00025073479
-0.00070106667
-0.0014452563
-0.00023292785
-0.0014261482
-0.0012333448
-0.00016005653
-0.0018854671
-0.00074592435
-3.588717e-05
-0.0019223905
-6.8298903e-05
9.2535044e-05
-0.0015193428
0.00063103388
0.00019756345
0.0011712757
0.00026271
-6.4380258e-05
0.0009060412
0.00018028952
0.00039308047
0.00090882057
0.00016193943
0.00075310854
0.00076590501
0.00012656243
0.0009831786
0.00052117123
8.1339941e-05
0.0010715173
0.00021602123
3.0135591e-05
0.0010132063
-0.00012187906
-2.7270345e-05
0.0008008275
-0.00044874625
-8.1630975e-05
0.00044917696
-0.00072018565
-0.00012533592
-7.4939978e-06
-0.00088894464
-0.00014504563
-0.0004891597
-0.00090842738
-0.00013295695
-0.00093878336
-0.00077627997
-8.5188052e-05
-0.0012079738
-0.00045433352
-1.6037068e-05
-0.0012231924
-3.2098634e-05
6.1358123e-05
-0.00097915749
0.00039805053
0.00012868534
0.00073575739
0.00017110636
-6.1587171e-05
0.0005748562
0.00012395325
0.00025019259
0.00058554496
0.00011159947
0.00050839616
0.00050379454
9.0936164e-05
0.00067803803
0.00034949818
6.2651419e-05
0.00073362829
0.00014609661
2.679381e-05
0.0006863467
-7.807135e-05
-8.3928052e-06
0.00052941519
-0.00029614641
-4.505007e-05
0.00028045363
-0.00047291196
-7.2426715e-05
-2.6958481e-05
-0.00057680109
-8.2980495e-05
-0.00035701752
-0.00058338405
-7.4441879e-05
-0.0006168587
-0.00047254629
-4.940375e-05
-0.00078579898
-0.00027493308
-7.682075e-06
-0.0007931046
-1.154012e-05
4.2428774e-05
-0.00064147538
0.00025353355
8.7514003e-05
0.00045759284
0.00011585474
-5.0896195e-05
0.00035741409
8.6071043e-05
0.00016845404
0.00036941149
7.9097735e-05
0.00035411227
0.00032118637
6.6691512e-05
0.0004746466
0.00022405557
4.8340521e-05
0.00050947284
9.4387272e-05
2.4609755e-05
0.0004682825
-4.9521832e-05
-8.9581381e-07
0.00035266872
-0.00018962854
-2.7206609e-05
0.00017658505
-0.0003013936
-4.522945e-05
-3.3533405e-05
-0.00036407189
-5.1767376e-05
-0.00024618582
-0.00036325836
-4.5937335e-05
-0.00041925858
-0.00029148868
-3.0254467e-05
-0.00052243949
-0.00016359692
-1.1294905e-06
-0.00052806518
-2.2971502e-07
3.2659228e-05
-0.00043743299
0.00016034088
6.2334101e-05
0.00028417556
8.1222661e-05
-3.8898422e-05
0.00021655013
6.6526057e-05
0.00012023302
0.00022258245
6.0895357e-05
0.00025698579
0.00019286437
5.1040819e-05
0.00034498154
0.00013371909
3.7229402e-05
0.00036556751
5.5603127e-05
2.0954076e-05
0.00032817868
-3.1048205e-05
2.4923852e-06
0.00024090991
-0.00011537772
-1.6640231e-05
0.00011391433
-0.00018171932
-3.0311629e-05
-3.2716614e-05
-0.00021756762
-3.6528518e-05
-0.00017441689
-0.00021488415
-3.3955634e-05
-0.00029136891
-0.00017046651
-2.0649295e-05
-0.0003590839
-9.1388215e-05
1.6307455e-06
-0.00036750766
5.2127203e-06
2.6663866e-05
-0.00031360492
9.9182079e-05
4.8588828e-05
0.00017384604
6.3414191e-05
-3.2865951e-05
0.00010671527
5.7414101e-05
9.051625e-05
0.00010735524
4.959404e-05
0.00019784167
9.1793167e-05
3.9182276e-05
0.00026686611
6.2581619e-05
2.7795828e-05
0.00027891661
2.4901351e-05
1.625896e-05
0.00024384922
-1.7034766e-05
2.9848395e-06
0.00017456959
-5.648855e-05
-1.1007998e-05
7.8068268e-05
-8.6839612e-05
-2.2671151e-05
-3.0031962e-05
-0.00010281881
-2.962143e-05
-0.00012999831
-0.00010130946
-2.98292e-05
-0.00021228969
-7.9562079e-05
-1.7062289e-05
-0.00026248611
-4.0623191e-05
2.7561244e-06
-0.00027354258
4.8466364e-06
2.4801649e-05
-0.00023894312
4.9211589e-05
4.3318957e-05
8.6574876e-05
5.5560259e-05
-3.221776e-05
5.3074549e-05
7.4933937e-05
4.2934151e-05
0.00016858476
3.2078198e-05
0.00022912412
2.2493774e-05
0.00023691626
1.3498373e-05
0.00020433949
3.1919798e-06
0.00014417908
-8.4409885e-06
6.2072187e-05
-1.9601052e-05
-2.8515031e-05
-2.7139583e-05
-0.00010822107
-2.8840416e-05
-0.00017330238
-1.6354294e-05
-0.00021695742
3.9682633e-06
-0.00022911616
2.5049567e-05
-0.00020152544
4.1438775e-05
5.1523112e-05
0.22749853
0.034491374
0.049721384
0.14875989
0.012980224
0.087013375
0.13495432
0.006812341
-0.0090705184
0.19010139
-0.012454549
-0.075597082
0.53440785
-0.10457332
-0.13004934
0.66548578
-0.037744463
-0.017300702
0.32063174
0.059730798
0.25200257
0.4060497
-0.025876424
-0.02565182
0.49444841
0.021036087
-0.182281
0.30856691
0.054989076
0.029720727
0.25760658
-0.048773234
0.053087838
-0.061049102
-0.15387002
0.24435927
-0.065349711
-0.084121408
-0.096989778
0.22836559
0.13669626
-0.24559403
0.14058097
0.066657689
0.041569518
0.0365932
0.026023028
0.026147489
0.014716925
0.024323282
0.025694758
0.0053639488
-0.00057652488
0.031400381
-0.0051637683
-0.020895421
-0.0054939465
-0.022951227
-0.025177512
-0.0097085012
-0.0117192
0.00057266213
0.014701894
0.0026847011
0.038754836
-0.00077412798
-0.0043525188
-0.0051520118
0.025464409
0.0043681901
-0.03496391
0.061265104
-0.0042668931
-0.0053455941
0.034644533
-0.044717351
0.0037154599
-0.098785947
-0.078847123
0.022033212
-0.1598184
-0.029130851
-0.023142889
-0.03424106
0.063787018
-0.026928592
0.073535697
0.026788372
0.01965445
0.024408533
0.012323135
0.016756909
0.012989643
0.0092247092
0.015143579
0.0058350933
0.001295331
0.013597757
5.1456174e-05
-0.0051920292
0.0055833514
-0.0051282137
-0.0055834264
0.0045119112
-0.0042378139
-1.5685632e-05
0.0076015552
-0.0026483138
0.0052186735
0.0078214245
-0.0037180045
-0.0030599192
0.016707782
-0.0044750627
-0.0097753666
0.020786359
-0.012682675
-0.0062873154
0.00052979328
-0.027721172
-0.0043595189
-0.049123751
-0.034467397
-0.001880222
-0.067037771
-0.010224812
-0.0049637813
-0.024535124
0.026390659
0.00082223434
0.03551996
0.012321537
0.0082388107
0.014732026
0.0059505636
0.0096009445
0.0096686885
0.0043104953
0.0093604955
0.0053670982
0.0014230012
0.008423849
0.0019300021
-0.00093863488
0.0064685746
-0.00065791598
-0.0013628992
0.0060963176
-0.0017250953
-0.00046373235
0.0065352387
-0.0025663578
-0.00010857552
0.0070583473
-0.0039442096
-0.0022785089
0.0084991381
-0.0061444553
-0.0042302284
0.0057593605
-0.010688779
-0.0041368349
-0.0062002926
-0.015764144
-0.0035978981
-0.024892968
-0.015411782
-0.0023735397
-0.03045038
-0.0038654791
-0.00077196626
-0.015402105
0.011377211
0.0027094916
0.017421235
0.0059426103
0.0031778677
0.0088030503
0.0030335707
0.0052996257
0.0067154634
0.0022785052
0.0059236916
0.0043363953
0.0010961484
0.0058366872
0.0022067759
9.6827887e-05
0.0054002392
0.00046383307
-0.00031345233
0.0052539989
-0.00080391715
-0.00040947022
0.0051571213
-0.0020361084
-0.00075393799
0.0048567734
-0.0034714548
-0.0015710071
0.003955913
-0.0052602034
-0.002295616
0.00068884378
-0.0074847584
-0.0024383649
-0.0058435838
-0.0089034642
-0.0021220841
-0.013352011