/*--------------------------------*- C++ -*----------------------------------*\
| =========                 |                                                 |
| \\      /  F ield         | OpenFOAM: The Open Source CFD Toolbox           |
|  \\    /   O peration     | Version:  3.0.1                                 |
|   \\  /    A nd           | Web:      www.OpenFOAM.org                      |
|    \\/     M anipulation  |                                                 |
\*---------------------------------------------------------------------------*/
FoamFile
{
    version     2.0;
    format      ascii;
    class       volScalarField;
    location    "0.1";
    object      sigmazz;
}
// * * * * * * * * * * * * * * * * * * * * * * * * * * * * * * * * * * * * * //

dimensions      [0 2 -2 0 0 0 0];

internalField   nonuniform List<scalar> 
3375
(
-3.4290222e-07
6.063723e-06
1.8657416e-05
-2.2667742e-07
-1.9591603e-05
-1.250905e-05
-1.4378177e-05
7.0679032e-07
1.1980631e-05
2.8258934e-06
1.9340485e-05
-5.9657493e-05
9.4812159e-06
6.6503597e-05
-2.8834379e-05
-1.977857e-06
1.736631e-06
4.7492006e-06
4.7116779e-07
-3.876646e-06
-2.2044064e-06
-1.2191716e-06
1.515007e-07
1.2566157e-06
2.5507253e-06
7.1958027e-06
5.706528e-06
2.8578077e-07
-6.3391371e-06
-8.4754015e-06
-9.3256586e-07
4.3476183e-07
7.3806582e-07
-2.909834e-07
-5.716822e-07
-4.4147342e-07
-6.5012112e-07
1.8452295e-07
1.0343895e-06
1.0764725e-06
1.0488867e-06
-3.0938309e-06
1.1555238e-07
3.060393e-06
-1.7000504e-06
-2.2543868e-07
6.5584127e-08
9.4519538e-08
-6.488382e-08
1.3778108e-08
5.4852353e-08
-3.1997613e-08
7.7735547e-08
2.3317414e-07
2.2426734e-07
2.7595013e-08
-7.2819392e-07
-7.3971187e-08
5.7740756e-07
-2.2846853e-07
9.971485e-09
3.3936534e-08
1.9903395e-08
1.1456802e-08
6.6768925e-08
7.1440162e-08
2.3983952e-08
7.67364e-09
5.82453e-09
-3.5596717e-08
-1.3417925e-07
-2.6219022e-07
-4.7061251e-08
1.7910166e-07
5.8616233e-08
6.0886072e-08
4.1680534e-08
2.4845948e-08
2.5632111e-08
4.2813362e-08
3.8631323e-08
7.9162283e-09
-2.2092712e-08
-4.7483262e-08
-8.0546622e-08
-1.1738845e-07
-1.2125054e-07
-1.8931018e-08
8.6951383e-08
8.7160606e-08
5.6543758e-08
4.0932698e-08
2.7683275e-08
2.3693744e-08
2.3826287e-08
1.5241995e-08
-4.5170203e-09
-2.7285834e-08
-4.7974367e-08
-6.685722e-08
-7.6815632e-08
-6.0170545e-08
-5.1149367e-09
5.0238152e-08
6.6455023e-08
4.0838413e-08
3.2995824e-08
2.3991872e-08
1.7956318e-08
1.3069646e-08
4.5040497e-09
-7.7381867e-09
-2.2281638e-08
-3.5619863e-08
-4.4801249e-08
-4.5173101e-08
-2.9836261e-08
9.1334e-10
2.9994137e-08
4.2598812e-08
2.6776614e-08
2.390533e-08
1.8598432e-08
1.300052e-08
7.5505998e-09
8.2642883e-10
-6.7228237e-09
-1.5810108e-08
-2.3796983e-08
-2.7956639e-08
-2.5584177e-08
-1.4806823e-08
2.4450812e-09
1.7998413e-08
2.6205043e-08
1.8268075e-08
1.6385256e-08
1.3034184e-08
9.258955e-09
5.1871794e-09
5.7196873e-10
-4.6987158e-09
-1.0176335e-08
-1.4923147e-08
-1.7028314e-08
-1.469559e-08
-7.81701e-09
1.7256496e-09
1.0980296e-08
1.717494e-08
1.2265323e-08
1.1352049e-08
9.1742873e-09
6.7885324e-09
4.5141201e-09
5.224491e-10
-3.0093797e-09
-6.4646721e-09
-8.8687599e-09
-9.9646784e-09
-8.4720485e-09
-4.1025191e-09
1.6828294e-09
7.1169649e-09
1.1429094e-08
7.677967e-09
7.559304e-09
6.4014652e-09
4.8862526e-09
3.3613702e-09
1.0127984e-09
-1.4415963e-09
-3.7502164e-09
-5.0439682e-09
-5.2036811e-09
-4.168647e-09
-1.7652792e-09
1.9124854e-09
5.0664785e-09
6.8902534e-09
4.7984095e-09
5.0793368e-09
4.6019785e-09
3.7589045e-09
2.6737792e-09
1.057069e-09
-5.7790157e-10
-2.1813528e-09
-3.1429762e-09
-2.9566808e-09
-1.9083172e-09
-4.6087949e-10
2.0990861e-09
4.0971127e-09
4.5935522e-09
4.4132493e-09
4.0499413e-09
3.4627857e-09
2.9544383e-09
2.1952407e-09
1.1014222e-09
-2.7694113e-10
-1.5707302e-09
-2.5887039e-09
-2.6654796e-09
-1.6361367e-09
5.5624184e-11
2.1615286e-09
3.7862796e-09
4.4013256e-09
5.0019825e-09
3.9801063e-09
3.1315794e-09
2.7440713e-09
2.1469324e-09
1.1717369e-09
-4.3837687e-10
-1.6923358e-09
-2.729115e-09
-3.083974e-09
-2.0061315e-09
2.3758553e-10
2.2417358e-09
3.8096639e-09
4.9091206e-09
-1.4909271e-05
1.2265722e-05
2.306484e-05
-4.1614564e-05
3.2354599e-06
4.4500787e-05
-3.4720463e-06
5.8377566e-06
-3.9835373e-06
-7.2242327e-07
9.7018751e-06
6.6032647e-06
5.9037056e-06
-1.4389445e-05
-3.2014308e-05
-1.3676385e-06
1.9620314e-06
3.0162868e-06
-1.0877256e-06
-2.3855017e-07
1.5329635e-06
-2.5319618e-07
6.238004e-07
-4.1603447e-07
6.7699403e-07
4.1769823e-06
4.1691076e-06
-7.9655578e-07
-6.1082003e-06
-5.8828723e-06
-6.8027314e-07
1.2662236e-06
1.342496e-06
-2.1688734e-06
-2.3193942e-07
2.2431102e-06
4.4836759e-07
3.4168302e-07
-1.1291667e-09
4.7401345e-07
6.364108e-07
-1.5748481e-06
-1.2844092e-06
2.1530017e-07
-1.0135766e-06
9.8173543e-08
4.09046e-07
2.9476374e-07
-3.9406715e-07
-9.1416392e-08
4.0600892e-07
1.8438384e-07
1.1767553e-07
5.956644e-08
1.0103338e-07
-1.1170099e-07
-8.5278447e-07
-5.963732e-07
2.4344535e-07
1.4242248e-07
1.5172198e-07
1.7055316e-07
9.6678013e-08
-6.1066767e-08
-1.8992313e-08
8.1368205e-08
5.4879621e-08
3.007341e-08
4.2393967e-09
-3.4487617e-08
-1.7075746e-07
-3.7237713e-07
-2.2492673e-07
1.1828265e-07
1.8016417e-07
1.0712088e-07
9.0065892e-08
5.1419585e-08
4.7645379e-09
3.859031e-09
1.986805e-08
1.0974838e-08
-4.75453e-09
-2.5358312e-08
-6.0782745e-08
-1.1883955e-07
-1.6222876e-07
-8.1833657e-08
5.9383733e-08
1.1250081e-07
6.6043256e-08
5.3889328e-08
3.4303993e-08
1.5552002e-08
8.3413352e-09
5.7002722e-09
-2.6824e-09
-1.4551265e-08
-2.9780561e-08
-5.0032652e-08
-7.1693796e-08
-7.3854902e-08
-3.0257955e-08
3.257908e-08
6.4985647e-08
3.8716457e-08
3.3723814e-08
2.4031034e-08
1.434096e-08
7.5302715e-09
1.4088472e-09
-5.1436147e-09
-1.3608723e-08
-2.3910772e-08
-3.429292e-08
-4.1036435e-08
-3.4694412e-08
-1.0561354e-08
1.8913753e-08
3.6439604e-08
2.2951173e-08
2.1636317e-08
1.6743757e-08
1.08604e-08
5.6234152e-09
4.04441e-10
-4.1383707e-09
-1.0212343e-08
-1.7006396e-08
-2.2192798e-08
-2.3157444e-08
-1.6827799e-08
-3.3787033e-09
1.1204024e-08
2.0658427e-08
1.5094789e-08
1.4068812e-08
1.1221414e-08
7.8275106e-09
4.4276713e-09
1.0559668e-09
-2.6427162e-09
-6.7336155e-09
-1.1008923e-08
-1.4053968e-08
-1.3357298e-08
-8.7763761e-09
-1.3124895e-09
6.8481235e-09
1.2909077e-08
9.6727963e-09
9.0225393e-09
7.5171944e-09
5.8238095e-09
3.9165017e-09
1.0694765e-09
-1.5607028e-09
-4.1422533e-09
-6.4191127e-09
-8.069656e-09
-7.7743357e-09
-4.8008516e-09
-1.8985523e-10
4.6614662e-09
8.6018742e-09
5.3206821e-09
5.1613324e-09
4.5924102e-09
3.9789139e-09
3.1061831e-09
1.215934e-09
-5.4622453e-10
-2.1287913e-09
-3.4296058e-09
-4.0882633e-09
-3.6704639e-09
-2.1231463e-09
6.9256119e-10
3.4347504e-09
4.8956104e-09
3.196152e-09
3.1057372e-09
2.8935351e-09
2.7584404e-09
2.4471146e-09
1.4050031e-09
1.784992e-10
-1.0771585e-09
-2.1337934e-09
-2.5005073e-09
-1.6917741e-09
-6.4836874e-10
1.4690107e-09
3.1257857e-09
3.2881179e-09
3.5261079e-09
2.7691976e-09
2.2193963e-09
2.0820571e-09
2.0340752e-09
1.4642331e-09
2.6851158e-10
-1.071086e-09
-2.1927099e-09
-2.6542096e-09
-1.7241187e-09
4.2018067e-12
2.1895083e-09
3.6197444e-09
3.8572772e-09
4.6009139e-09
3.1478569e-09
2.2355098e-09
1.9998243e-09
1.9247512e-09
1.4685844e-09
-1.726085e-11
-1.4910763e-09
-2.6738772e-09
-3.262341e-09
-2.2202923e-09
2.7909432e-10
2.6124819e-09
4.1269608e-09
4.8513798e-09
6.5966685e-06
1.1224587e-05
-1.6686256e-06
-6.0445455e-06
3.341698e-06
9.6089085e-07
8.0918777e-06
5.4380479e-06
-2.3489093e-05
-8.6946522e-06
1.2008373e-05
-7.0907187e-05
-9.6624884e-05
7.0146491e-05
8.962386e-05
1.8274826e-06
3.2277001e-06
1.4236696e-06
-4.392376e-07
-6.8807614e-07
-7.965807e-08
1.3628553e-06
-1.3890968e-07
-2.8688344e-06
-9.7250968e-07
2.6915545e-06
2.271858e-06
-4.8609225e-06
-3.785352e-06
1.0330392e-06
1.696535e-06
1.3385007e-06
4.4774824e-07
-8.5601326e-07
-6.7211165e-07
1.3563149e-07
5.6183964e-07
7.2897928e-08
-9.0435182e-07
1.1731167e-08
-1.9760629e-07
-6.1530545e-06
-6.0413888e-06
4.5126514e-06
6.0549001e-06
7.9537473e-07
5.5550355e-07
2.1690983e-07
-2.6825177e-07
-3.2195572e-07
-3.978445e-08
1.0703125e-07
1.2382842e-08
-9.622813e-08
-7.82314e-09
-4.1569808e-07
-1.7347302e-06
-1.3889119e-06
1.0107355e-06
1.5790246e-06
3.5261666e-07
2.4346367e-07
1.0335407e-07
-6.7729285e-08
-1.1447001e-07
-4.4799771e-08
2.7843527e-09
9.8142333e-10
-1.0632883e-08
-4.9306213e-08
-2.5152264e-07
-5.622172e-07
-3.7138825e-07
2.7218743e-07
4.9516112e-07
1.5928776e-07
1.153153e-07
5.6944772e-08
-6.4097837e-09
-3.3792994e-08
-2.1939511e-08
-9.6530367e-09
-6.9931533e-09
-1.4919222e-08
-5.1311888e-08
-1.3365067e-07
-2.0594621e-07
-1.1657268e-07
8.7013307e-08
1.8159234e-07
7.5815677e-08
5.8394972e-08
3.3628606e-08
8.353043e-09
-5.8879567e-09
-7.3638825e-09
-7.304521e-09
-8.7991483e-09
-1.7076326e-08
-3.8170677e-08
-6.9566891e-08
-8.372117e-08
-4.2343647e-08
3.2303148e-08
7.4566318e-08
3.6629869e-08
3.1496662e-08
2.1039037e-08
9.8117337e-09
1.9253155e-09
-1.4946065e-09
-3.755698e-09
-7.1056247e-09
-1.4221675e-08
-2.5146625e-08
-3.7403777e-08
-3.6878969e-08
-1.657521e-08
1.3401353e-08
3.2617323e-08
1.8901736e-08
1.8115743e-08
1.3564916e-08
7.996984e-09
3.2644711e-09
7.1621617e-10
-1.434294e-09
-5.169803e-09
-1.0692838e-08
-1.6213891e-08
-2.0505657e-08
-1.7330416e-08
-7.061496e-09
6.1787753e-09
1.5254441e-08
1.1160489e-08
1.052737e-08
8.619563e-09
6.2904583e-09
3.6756049e-09
1.3050348e-09
-1.0280657e-09
-3.7078712e-09
-7.2925248e-09
-1.0479596e-08
-1.128185e-08
-9.0804795e-09
-3.744426e-09
3.3853773e-09
9.0560705e-09
7.104081e-09
6.0979408e-09
5.104753e-09
4.1881297e-09
2.8300884e-09
1.7858467e-09
-1.6283933e-10
-1.7957232e-09
-3.462588e-09
-5.5800165e-09
-6.7144295e-09
-5.0722053e-09
-1.6839139e-09
2.3159403e-09
5.513665e-09
3.1591308e-09
2.8819562e-09
2.7280345e-09
2.7525003e-09
2.3565355e-09
1.7719806e-09
3.7636867e-10
-6.3827233e-10
-1.6495552e-09
-2.472427e-09
-3.4067055e-09
-2.4322137e-09
-2.9615937e-10
1.8759515e-09
2.7676565e-09
1.633907e-09
1.3748862e-09
1.3676502e-09
1.7623536e-09
2.0571102e-09
1.8162816e-09
8.3738417e-10
-1.8079833e-10
-1.2490549e-09
-1.8642587e-09
-1.7479315e-09
-9.0047741e-10
8.9859827e-10
2.2152878e-09
2.0021618e-09
2.4887795e-09
1.3928746e-09
8.695031e-10
1.1851545e-09
1.9106214e-09
1.6845572e-09
7.8473615e-10
-5.5564843e-10
-1.9154301e-09
-2.7432997e-09
-1.9537046e-09
-1.2226513e-10
2.0519186e-09
3.3131291e-09
3.2897009e-09
3.8287213e-09
1.8669209e-09
9.0852902e-10
1.1322111e-09
1.9653656e-09
1.5144277e-09
3.6728795e-10
-1.2098582e-09
-2.7211952e-09
-3.7816398e-09
-2.482744e-09
3.7487419e-10
2.8179798e-09
4.1570834e-09
4.6082863e-09
-3.0029368e-06
8.3819791e-06
-2.6086164e-07
3.8704703e-06
-4.4786414e-05
-2.0584031e-05
4.4112597e-05
-2.0319828e-05
-6.2483599e-06
2.8375549e-05
9.9184001e-06
2.5542951e-05
-1.1766454e-05
-1.6807762e-05
3.5829305e-06
5.1762539e-07
1.8365964e-06
3.9986483e-07
-2.3516927e-07
-3.1421911e-06
-2.6181866e-06
6.8428271e-07
-1.246746e-06
-4.2191934e-07
1.650961e-06
3.450976e-06
4.8851531e-06
-1.0420978e-07
-3.6852471e-06
-1.9636767e-06
5.9149388e-07
7.4890359e-07
4.0715694e-07
-4.2478557e-07
-3.0344059e-06
-1.5830866e-06
1.008006e-06
-8.4821738e-07
5.0972795e-07
1.923786e-06
5.1041363e-07
-1.695146e-06
-1.732355e-06
1.6951991e-06
1.929993e-06
4.9575377e-07
3.275718e-07
1.6562671e-07
-1.8831353e-07
-7.4595744e-07
-5.1655748e-07
-8.2978958e-08
-1.2601043e-07
2.7688537e-07
4.0329251e-07
-1.8771002e-07
-1.0349922e-06
-5.8785346e-07
8.3418077e-07
9.6925223e-07
2.6859865e-07
1.6514093e-07
7.8468527e-08
-5.6466253e-08
-2.0312449e-07
-1.7740637e-07
-8.5998e-08
-2.0036498e-08
9.2580957e-08
5.9630867e-08
-1.8150537e-07
-4.3311518e-07
-2.0750879e-07
2.9667567e-07
4.0555963e-07
1.2735184e-07
8.3157602e-08
4.0804479e-08
-1.1057026e-08
-5.6971688e-08
-5.8027586e-08
-3.555512e-08
-4.2349517e-09
2.1927357e-08
-1.1067273e-08
-1.0503143e-07
-1.7513636e-07
-8.2617077e-08
9.4317682e-08
1.5847743e-07
5.8153477e-08
4.1716678e-08
2.3164165e-08
3.2242483e-09
-1.2569745e-08
-1.5798099e-08
-1.0243964e-08
-5.7605667e-10
2.1604888e-09
-1.7874803e-08
-5.3749499e-08
-7.3604829e-08
-3.6948333e-08
2.80578e-08
6.1015887e-08
2.5111141e-08
2.0675168e-08
1.3511338e-08
5.5620337e-09
-1.8124967e-10
-2.6133008e-09
-1.0617167e-09
6.3141133e-10
-2.4143127e-09
-1.3606811e-08
-2.7580809e-08
-3.2725339e-08
-1.740849e-08
7.1232567e-09
2.2813583e-08
1.0992434e-08
1.0720717e-08
8.1091303e-09
4.784608e-09
2.3694944e-09
1.313844e-09
1.821319e-09
8.0575e-10
-3.0440107e-09
-9.592398e-09
-1.4194381e-08
-1.5187359e-08
-8.7588438e-09
9.83173e-10
7.9901543e-09
5.8586472e-09
5.567451e-09
4.6047182e-09
3.681542e-09
2.7627727e-09
2.2230164e-09
1.7131595e-09
5.6934283e-10
-2.1510985e-09
-5.7293175e-09
-7.8489195e-09
-7.9983863e-09
-5.3048887e-09
-4.274605e-10
3.843565e-09
3.1521965e-09
2.632031e-09
2.4442115e-09
2.558857e-09
2.4153333e-09
1.9053833e-09
9.7196807e-10
-1.6691167e-11
-1.2039237e-09
-3.1734743e-09
-4.5673778e-09
-4.7620993e-09
-3.0131417e-09
-2.905455e-10
2.2898387e-09
9.6895883e-10
8.0429417e-10
1.0470708e-09
1.6556708e-09
2.0584773e-09
1.8480009e-09
1.1460076e-09
5.333859e-10
-2.98815e-10
-1.4952352e-09
-2.3817591e-09
-2.4848679e-09
-1.3988164e-09
-2.9042333e-11
7.589945e-10
2.1325382e-10
4.9368667e-11
2.3635802e-10
9.7002583e-10
1.841535e-09
1.9456005e-09
1.3164728e-09
5.711123e-10
-4.1312887e-10
-1.4166788e-09
-1.5328448e-09
-1.1936921e-09
-1.3236658e-10
6.8366167e-10
5.357925e-10
9.8172923e-10
1.671245e-10
-1.4284843e-10
4.9016483e-10
1.6201321e-09
1.9122968e-09
1.2478549e-09
1.9226998e-10
-1.080705e-09
-2.0509381e-09
-2.0931603e-09
-5.8236016e-10
9.6205334e-10
1.8084006e-09
1.7432352e-09
1.9751805e-09
4.400366e-10
-2.4969245e-10
3.527685e-10
1.5191795e-09
1.7185112e-09
9.009052e-10
-3.3204715e-10
-1.7228672e-09
-2.6956704e-09
-2.7197615e-09
-2.0971159e-10
1.6878953e-09
2.5806978e-09
2.855306e-09
-3.8163602e-07
-1.5385024e-05
7.3625775e-06
9.1829563e-06
2.2456849e-06
6.0623835e-06
-7.2605756e-05
-3.2495684e-06
6.9427802e-05
-5.5867081e-06
6.070201e-06
-0.00011165222
2.0850786e-05
0.00011147981
-2.3815378e-05
-5.175544e-07
7.3331562e-07
8.8936264e-07
-2.33912e-07
-1.1874505e-06
-1.3376126e-06
-4.0738988e-06
-9.9045186e-07
2.6110852e-06
-3.0904563e-08
2.6580896e-06
4.285559e-07
3.5535037e-06
1.9498164e-06
-4.4470049e-06
-3.9813445e-07
-1.0046589e-06
5.5368686e-07
8.7054608e-07
-3.8773343e-07
-1.0161295e-06
-4.1860571e-06
-4.5309935e-07
4.0552398e-06
9.8128545e-07
-7.6956123e-07
-6.8564955e-06
6.6068618e-07
7.2906372e-06
6.6450783e-07
2.2482e-08
-1.6565215e-07
1.5130472e-07
1.9970354e-07
-2.0285646e-07
-4.6667691e-07
-8.9075896e-07
-9.2828565e-08
8.8119321e-07
3.5664711e-07
-4.0942144e-07
-1.5751727e-06
2.892325e-09
1.621814e-06
5.6978161e-07
6.4333972e-08
-9.7907248e-09
4.8270208e-08
4.8214419e-08
-7.0940149e-08
-1.5744279e-07
-2.0221163e-07
9.26945e-10
2.2660218e-07
1.0427397e-07
-1.7338661e-07
-4.3791235e-07
-6.6432349e-08
3.7854275e-07
2.4122681e-07
3.7069425e-08
9.3378817e-09
1.7357853e-08
1.3622453e-08
-2.0287927e-08
-4.2833448e-08
-4.0127245e-08
1.8900427e-08
7.152924e-08
2.7796592e-08
-7.2490462e-08
-1.4692523e-07
-5.1401201e-08
8.3138462e-08
8.2490055e-08
1.4329188e-08
5.8053767e-09
6.716245e-09
5.5445123e-09
-2.5733383e-09
-6.5426148e-09
-2.5810033e-10
1.7724512e-08
2.8828917e-08
7.8230933e-09
-3.1587142e-08
-5.7532718e-08
-3.1804696e-08
1.1787453e-08
2.333105e-08
2.92706e-09
1.630296e-09
2.1273973e-09
2.2021837e-09
1.7601533e-09
2.9423712e-09
7.551814e-09
1.2944878e-08
1.376951e-08
2.3938097e-09
-1.4506874e-08
-2.496877e-08
-1.769745e-08
-4.0101333e-09
2.646384e-09
-1.2956617e-09
-2.6606033e-10
5.6191633e-10
1.226771e-09
2.453038e-09
4.1954962e-09
7.169226e-09
8.3405515e-09
6.7654148e-09
2.1768983e-10
-6.5999808e-09
-1.172908e-08
-1.0170949e-08
-6.1170373e-09
-2.926821e-09
-1.3390457e-09
-1.1067513e-09
-2.8484633e-10
1.1138573e-09
2.5492755e-09
3.3781526e-09
4.7427541e-09
4.9399537e-09
3.4564355e-09
-3.6939967e-10
-3.2359402e-09
-6.4267953e-09
-6.7326955e-09
-4.7966375e-09
-2.490455e-09
-1.3454133e-09
-1.419102e-09
-7.1096267e-10
5.851975e-10
1.6349968e-09
2.4840916e-09
2.7517469e-09
2.8342025e-09
2.2264347e-09
2.0897833e-11
-2.4457223e-09
-4.1476136e-09
-4.1867606e-09
-3.2986645e-09
-1.774704e-09
-1.7484847e-09
-1.4723698e-09
-8.4934567e-10
2.3739543e-10
1.3582841e-09
1.910104e-09
2.127333e-09
2.0561477e-09
1.6390088e-09
2.199174e-10
-1.4235549e-09
-2.4220719e-09
-2.4316292e-09
-2.1465277e-09
-1.772652e-09
-1.7100146e-09
-1.4998698e-09
-1.097752e-09
-8.5694433e-11
1.2298146e-09
1.7636461e-09
1.7922759e-09
1.4575255e-09
7.1662817e-10
-3.7685837e-10
-1.1330891e-09
-1.5503445e-09
-1.4209659e-09
-1.2636219e-09
-1.2960247e-09
-8.0330307e-10
-1.1963961e-09
-1.2590831e-09
-2.8470223e-10
1.0487836e-09
1.7108316e-09
1.6233495e-09
1.0969549e-09
-1.9120733e-11
-1.1954605e-09
-1.5755862e-09
-1.0540419e-09
-6.0103571e-10
-4.1843575e-10
-3.2549745e-10
-7.7629917e-11
-9.65739e-10
-1.3331838e-09
-3.1775817e-10
8.9935922e-10
1.4959869e-09
1.2910454e-09
7.4733651e-10
-4.3247889e-10
-1.6102167e-09
-1.9543921e-09
-6.6217596e-10
-5.629313e-11
-6.7549883e-11
2.8076148e-10
-6.0886759e-06
1.6070569e-06
6.2705495e-06
3.2224482e-06
-1.4841528e-06
2.2212425e-06
-6.569723e-06
-1.2226097e-06
4.644843e-06
-1.6567409e-05
6.8000007e-06
-2.0146504e-05
2.2643939e-06
3.8010295e-05
-1.2956352e-05
-2.208872e-06
-4.4796455e-07
1.0629069e-06
1.2849505e-06
1.0828544e-06
5.2441496e-07
-1.5995852e-06
-8.856933e-07
-2.476774e-07
-9.838431e-07
2.294077e-06
2.2695586e-06
1.8937364e-06
4.0128117e-08
-4.0782673e-06
-1.1221976e-06
-1.1503132e-06
4.8773301e-07
1.4419892e-06
4.6004727e-07
-4.221526e-08
-1.1345681e-06
-2.0425574e-07
1.0636405e-06
-1.438768e-07
-2.9042667e-09
-2.2519035e-06
2.3869801e-07
2.9373374e-06
-5.8084328e-07
-4.3072837e-07
-4.8054493e-07
1.0352392e-07
5.1841982e-07
2.5468597e-07
-2.0834798e-08
-3.081413e-07
2.8790713e-08
4.573348e-07
1.8218306e-07
-1.0761155e-07
-7.0434175e-07
-4.3343012e-08
6.4639033e-07
-9.9477082e-08
-1.7428939e-07
-1.8188301e-07
6.7280767e-09
1.5660286e-07
1.043073e-07
1.5731007e-08
-3.9480647e-08
7.8002358e-08
2.092573e-07
1.2801306e-07
-4.2748662e-08
-2.3214117e-07
-8.3148692e-08
9.5591983e-08
-5.6591637e-08
-7.91396e-08
-7.533957e-08
-1.3281855e-08
4.2197962e-08
4.1812067e-08
2.5154967e-08
2.4514978e-08
6.7838087e-08
1.0605468e-07
7.1632157e-08
-9.5894217e-09
-8.4122625e-08
-6.2307428e-08
-1.768607e-08
-4.6871855e-08
-4.1807337e-08
-3.7399385e-08
-1.4670203e-08
8.3390153e-09
1.6894085e-08
2.0450344e-08
2.9206991e-08
4.7139167e-08
5.6932418e-08
3.8925287e-08
1.9378033e-11
-3.445149e-08
-3.8963154e-08
-2.9848648e-08
-3.4952861e-08
-2.5066369e-08
-2.0704051e-08
-1.0817888e-08
-6.9264333e-11
7.3625613e-09
1.4120451e-08
2.2530693e-08
3.050604e-08
3.1196404e-08
2.0809388e-08
1.9715675e-09
-1.4554351e-08
-2.1806032e-08
-2.2372374e-08
-2.4418026e-08
-1.541413e-08
-1.2254457e-08
-7.5680165e-09
-1.9223343e-09
3.3897677e-09
9.0455814e-09
1.4846247e-08
1.8455019e-08
1.6949103e-08
1.078421e-08
1.3756665e-09
-6.632803e-09
-1.2421154e-08
-1.4888794e-08
-1.608372e-08
-8.7254047e-09
-7.5954748e-09
-5.0295767e-09
-1.3122127e-09
2.4089548e-09
5.4201538e-09
8.3784358e-09
9.8583822e-09
9.0708488e-09
5.4422828e-09
4.1475517e-10
-4.3834432e-09
-7.7820402e-09
-9.0706806e-09
-8.8652308e-09
-5.1046489e-09
-5.1733448e-09
-3.5002262e-09
-9.1165203e-10
1.2534859e-09
3.8767415e-09
4.9875153e-09
5.760859e-09
5.3665812e-09
3.7312431e-09
-4.6759953e-10
-3.215513e-09
-5.1963376e-09
-5.4928799e-09
-5.032842e-09
-3.9986011e-09
-3.8101623e-09
-2.7209112e-09
-8.1987393e-10
1.0228029e-09
2.3529007e-09
2.997163e-09
3.3656629e-09
2.7534234e-09
1.5744426e-09
-3.1377327e-10
-1.9232995e-09
-3.1299756e-09
-3.5183094e-09
-3.671907e-09
-3.0436525e-09
-2.9844115e-09
-2.4100304e-09
-9.865284e-10
8.2337458e-10
1.9039824e-09
2.3069993e-09
2.2844882e-09
1.5339327e-09
1.8559753e-10
-7.1857527e-10
-1.3845372e-09
-1.8487173e-09
-2.235379e-09
-2.6850078e-09
-1.9366921e-09
-2.4736037e-09
-2.3619651e-09
-1.1348051e-09
5.8243595e-10
1.6071296e-09
1.7779949e-09
1.3700255e-09
4.7530072e-10
-1.0079377e-09
-1.4317163e-09
-1.2770528e-09
-1.0204387e-09
-1.2153323e-09
-1.4507317e-09
-1.2106418e-09
-2.2847605e-09
-2.4270651e-09
-1.2055207e-09
3.6321563e-10
1.2706953e-09
1.3550172e-09
8.1037034e-10
-8.9264667e-12
-1.5479974e-09
-1.8261945e-09
-1.0891752e-09
-4.5188134e-10
-7.459032e-10
-7.7187426e-10
6.0581652e-07
-6.321017e-05
3.2892261e-06
6.0936172e-05
3.643835e-06
1.1236018e-05
2.5519669e-06
-3.2413473e-06
-7.2493323e-06
1.796992e-06
5.0449275e-06
1.5709426e-05
-6.0255535e-06
-2.0408243e-05
-4.6784848e-06
-2.8029481e-06
-3.2949062e-06
5.5385759e-07
3.8280188e-06
2.8206127e-06
2.3320826e-06
6.3463438e-07
-7.4324081e-07
-1.515082e-06
6.310816e-07
3.2470399e-06
4.8899186e-06
-1.1040532e-07
-5.5071907e-06
-4.9650569e-06
-1.3597902e-06
-4.1475853e-06
2.4414574e-08
4.1301226e-06
1.7725619e-06
1.0981533e-06
1.7086185e-07
4.8877752e-08
3.2220015e-07
6.2994349e-07
8.8888218e-07
3.8646727e-07
-7.2936907e-07
-1.6813255e-06
-1.5597582e-06
-7.2820573e-07
-1.0602994e-06
-6.789337e-08
9.5235413e-07
6.7280359e-07
4.2094003e-07
2.0186967e-07
2.3830062e-07
3.8100974e-07
4.0767252e-07
3.2727897e-07
-1.8017952e-08
-3.5793917e-07
-6.3786439e-07
-7.4196962e-07
-3.5709745e-07
-3.5609201e-07
-7.1076015e-08
2.2350599e-07
2.3050359e-07
1.8449254e-07
1.5701325e-07
2.0310448e-07
2.6161403e-07
2.4175608e-07
1.4252472e-07
-4.0131027e-08
-1.8692041e-07
-2.9386372e-07
-3.559283e-07
-1.7765004e-07
-1.5182002e-07
-5.5111497e-08
4.4958974e-08
7.8151085e-08
8.7840836e-08
1.0370167e-07
1.3468963e-07
1.5640579e-07
1.3580285e-07
6.9595541e-08
-2.2916683e-08
-9.7325058e-08
-1.4708316e-07
-1.7616096e-07
-9.0912185e-08
-7.5692286e-08
-3.8624279e-08
1.6016207e-09
2.671947e-08
4.4812361e-08
6.2933419e-08
8.1343673e-08
8.8968591e-08
7.3960337e-08
3.6223199e-08
-1.0902826e-08
-5.0084846e-08
-7.6243725e-08
-9.0769856e-08
-4.8900413e-08
-4.0949005e-08
-2.5090075e-08
-6.6629967e-09
9.2719627e-09
2.3710914e-08
3.6886156e-08
4.6931797e-08
4.878106e-08
3.9584285e-08
1.8708634e-08
-4.5534257e-09
-2.5570803e-08
-4.0344708e-08
-4.8853938e-08
-2.685142e-08
-2.2783567e-08
-1.547055e-08
-6.003464e-09
3.7079712e-09
1.2910437e-08
2.1005937e-08
2.5909414e-08
2.5722156e-08
2.0338464e-08
9.2933195e-09
-2.2074153e-09
-1.3756504e-08
-2.2038242e-08
-2.6590136e-08
-1.4568443e-08
-1.3106077e-08
-9.0785076e-09
-3.3679707e-09
2.3153672e-09
6.9866557e-09
1.1030111e-08
1.3618635e-08
1.3311823e-08
1.0001606e-08
4.4472867e-09
-2.0243432e-09
-7.9414973e-09
-1.1723705e-08
-1.3611932e-08
-7.8531292e-09
-7.8739409e-09
-5.5987742e-09
-2.3452801e-09
8.5878803e-10
4.5826541e-09
6.5184729e-09
7.6254479e-09
7.5910163e-09
5.561279e-09
1.5292036e-09
-1.915753e-09
-4.7314867e-09
-6.559562e-09
-7.7558318e-09
-5.6625851e-09
-5.669596e-09
-4.2121373e-09
-1.8326641e-09
6.336718e-10
2.9609675e-09
3.8088731e-09
4.3287814e-09
3.9287066e-09
2.7506895e-09
3.906271e-10
-1.3673296e-09
-2.8065273e-09
-3.8798461e-09
-5.0569013e-09
-4.0397681e-09
-4.4248101e-09
-3.70839e-09
-1.7514683e-09
7.3011607e-10
2.1350871e-09
2.588657e-09
2.5416814e-09
1.6931095e-09
3.6196753e-10
-5.6034793e-10
-1.0716545e-09
-1.5177996e-09
-2.1162128e-09
-3.0880295e-09
-2.4182014e-09
-3.6382618e-09
-3.6694973e-09
-2.0036845e-09
3.8924983e-10
1.6635617e-09
1.8638568e-09
1.3660068e-09
1.2118903e-10
-1.5479316e-09
-1.6874613e-09
-1.0170449e-09
-5.5854161e-10
-7.644044e-10
-1.3493057e-09
-1.5094209e-09
-3.2976041e-09
-3.6561286e-09
-2.1232479e-09
8.40053e-11
1.1589719e-09
1.290977e-09
5.7098656e-10
-7.0123648e-10
-2.4545326e-09
-2.2552365e-09
-8.3261294e-10
7.9525653e-11
-9.3974567e-11
-5.3151983e-10
3.3259936e-05
1.002081e-06
-1.8111311e-05
-2.4146722e-06
2.6084156e-05
1.6143943e-07
-2.0546811e-06
1.5436855e-06
-5.3395695e-06
9.1180122e-07
6.0591937e-06
1.1397499e-05
2.6855777e-06
-4.7297675e-05
-7.8916209e-06
-9.6922356e-07
-8.4112482e-07
-5.1266492e-07
1.2136153e-06
3.9937236e-06
1.276516e-06
-1.0044077e-06
-3.4463807e-07
2.4470975e-07
2.2948063e-06
3.5343498e-06
3.2879447e-06
-8.7466966e-07
-6.7429663e-06
-4.5578627e-06
6.5822552e-07
-9.7372448e-07
-1.17089e-06
7.4760041e-07
1.5503017e-06
7.3407877e-07
8.7114894e-07
7.8818876e-07
6.4705678e-07
1.1085979e-06
1.4780529e-06
1.0449813e-06
-9.5517181e-07
-4.3034628e-06
-2.2295044e-06
-4.1870268e-07
-5.7395635e-07
-3.5868833e-07
2.3269248e-07
4.1004449e-07
3.9130219e-07
5.2889675e-07
5.6960922e-07
5.9944359e-07
6.8321199e-07
6.5336987e-07
2.7220125e-07
-5.2950236e-07
-1.3986395e-06
-1.0676391e-06
-3.551566e-07
-3.1336806e-07
-1.7483831e-07
2.9386665e-08
1.2132581e-07
1.9228895e-07
2.9243832e-07
3.4977666e-07
3.7980653e-07
3.7684648e-07
2.9626656e-07
7.8626233e-08
-2.4606824e-07
-5.2853344e-07
-5.0779379e-07
-2.0747148e-07
-1.7182661e-07
-1.0354779e-07
-2.0486422e-08
3.6755846e-08
9.3905412e-08
1.5436324e-07
1.9563444e-07
2.1263293e-07
1.9807282e-07
1.3796413e-07
2.7053985e-08
-1.110534e-07
-2.2146868e-07
-2.4241063e-07
-1.1120216e-07
-9.393103e-08
-6.2496292e-08
-2.4138905e-08
1.0629605e-08
4.6377852e-08
8.1674474e-08
1.0618077e-07
1.1416255e-07
1.0176469e-07
6.7079294e-08
1.1252271e-08
-5.0558048e-08
-9.9294214e-08
-1.1768051e-07
-5.8615827e-08
-5.1472666e-08
-3.7112293e-08
-1.8104604e-08
2.2343713e-09
2.3816068e-08
4.3561079e-08
5.6723719e-08
5.982412e-08
5.1396973e-08
3.32303e-08
5.8047807e-09
-2.3283369e-08
-4.7159879e-08
-5.9802167e-08
-3.1195515e-08
-2.8093636e-08
-2.1230025e-08
-1.1206729e-08
5.5316983e-10
1.2708508e-08
2.3022487e-08
2.9493508e-08
3.0336691e-08
2.5279948e-08
1.6307219e-08
2.9798367e-09
-1.1406601e-08
-2.3501266e-08
-3.0881753e-08
-1.6629487e-08
-1.5740502e-08
-1.1886542e-08
-5.829115e-09
3.0457963e-10
6.6277191e-09
1.1761994e-08
1.5260556e-08
1.5554907e-08
1.2635312e-08
7.4592837e-09
6.800072e-10
-6.3217556e-09
-1.1625202e-08
-1.5335058e-08
-9.2421462e-09
-9.5389268e-09
-7.4596976e-09
-3.9926439e-09
-4.6303e-12
3.7212128e-09
6.2557489e-09
7.572749e-09
7.9444845e-09
6.2828864e-09
3.312191e-09
-4.691495e-10
-3.7746927e-09
-6.4893606e-09
-8.2533217e-09
-6.3257969e-09
-6.6421881e-09
-5.3737838e-09
-2.9113653e-09
-1.2234423e-10
2.6489761e-09
3.6611889e-09
4.2646535e-09
4.1564625e-09
3.1446339e-09
1.4582076e-09
-4.1582663e-10
-2.0079653e-09
-3.6832861e-09
-5.575161e-09
-4.4871323e-09
-5.0591087e-09
-4.4900685e-09
-2.4359571e-09
3.1351805e-10
1.9262891e-09
2.3750082e-09
2.4175544e-09
1.8025638e-09
6.5297377e-10
-1.008316e-10
-4.7183925e-10
-8.6693949e-10
-1.7381516e-09
-3.1615921e-09
-2.5920769e-09
-4.0692436e-09
-4.3211656e-09
-2.6231505e-09
-9.4927867e-12
1.3617993e-09
1.6588678e-09
1.3186761e-09
1.3412062e-10
-1.4944483e-09
-1.9857635e-09
-8.3597087e-10
-1.3739171e-10
-2.6843626e-10
-9.195767e-10
-1.5468491e-09
-3.7244566e-09
-4.3523022e-09
-2.79937e-09
-3.1210545e-10
7.1712633e-10
1.0879619e-09
5.477116e-10
-8.816183e-10
-2.6966534e-09
-3.1350534e-09
-9.5429682e-10
3.7168481e-10
5.5584907e-10
3.1600176e-10
1.1170256e-05
7.4540702e-06
-4.5783364e-06
-1.3561015e-06
3.7233755e-06
-6.159083e-06
-2.3060478e-06
3.4022421e-06
6.7556247e-06
3.7674603e-06
7.164027e-06
5.3505968e-06
-8.5221875e-07
-2.3524756e-05
-1.0013332e-05
-1.5567458e-06
7.4768089e-07
-3.5526947e-07
-1.0963119e-06
-4.6646507e-07
-2.9409883e-07
4.1389695e-07
1.009418e-06
2.8130674e-06
4.4369541e-06
4.0784267e-06
1.9686416e-06
-1.2549226e-06
-5.5330186e-06
-4.9144726e-06
-1.0176144e-07
-1.1197073e-07
-7.3435369e-07
-5.5872614e-07
-1.2087978e-06
-2.0107753e-07
1.7440722e-06
1.6305234e-06
1.7916784e-06
1.8896499e-06
1.8908243e-06
1.0484728e-06
-1.0669844e-06
-3.5864401e-06
-2.4267355e-06
-4.5134944e-07
-3.192002e-07
-3.9824978e-07
-3.8263626e-07
-5.0377482e-07
6.208089e-08
8.4373973e-07
9.0762876e-07
9.3874583e-07
9.5812408e-07
8.6032064e-07
4.0417379e-07
-4.9046738e-07
-1.3269162e-06
-1.1070108e-06
-3.2763084e-07
-2.5201393e-07
-2.3232975e-07
-2.047907e-07
-1.7476411e-07
7.1091498e-08
3.6892502e-07
4.5376437e-07
4.7435187e-07
4.6370668e-07
3.8364619e-07
1.6094234e-07
-1.9981624e-07
-5.033118e-07
-4.9639792e-07
-1.8796858e-07
-1.5734682e-07
-1.3450222e-07
-1.0541252e-07
-6.1265237e-08
4.5869565e-08
1.6605068e-07
2.2173333e-07
2.363094e-07
2.2204208e-07
1.7295779e-07
6.839072e-08
-7.7592115e-08
-1.9799132e-07
-2.233987e-07
-1.0050875e-07
-9.0022862e-08
-7.6112819e-08
-5.5489781e-08
-2.4402656e-08
2.5269639e-08
7.7557359e-08
1.0780045e-07
1.1624812e-07
1.0699222e-07
7.9046628e-08
3.0991798e-08
-3.0004092e-08
-8.1509963e-08
-1.0241966e-07
-5.2718211e-08
-4.9735295e-08
-4.2574467e-08
-2.9626671e-08
-1.1008433e-08
1.3784397e-08
3.7927085e-08
5.3141837e-08
5.7416362e-08
5.147154e-08
3.7304281e-08
1.4746681e-08
-1.1981448e-08
-3.5708844e-08
-4.8632375e-08
-2.8127945e-08
-2.7394301e-08
-2.339608e-08
-1.5561306e-08
-4.387533e-09
7.0073655e-09
1.8313024e-08
2.5635603e-08
2.7812043e-08
2.4677613e-08
1.7807174e-08
7.0515497e-09
-5.5272035e-09
-1.6808387e-08
-2.3473943e-08
-1.4740235e-08
-1.5364508e-08
-1.3111382e-08
-8.3206722e-09
-2.351284e-09
3.3479108e-09
8.750158e-09
1.2783052e-08
1.375087e-08
1.181261e-08
8.0399354e-09
2.7545522e-09
-3.4105407e-09
-8.412981e-09
-1.1913141e-08
-8.0775539e-09
-8.5000409e-09
-7.2747784e-09
-4.7195923e-09
-1.6476009e-09
1.7737718e-09
4.4300638e-09
5.8540871e-09
6.4255349e-09
5.5055253e-09
3.5572381e-09
8.5860527e-10
-1.713029e-09
-4.2927452e-09
-6.2649004e-09
-5.4430896e-09
-5.8821617e-09
-5.2197459e-09
-3.4120623e-09
-1.0279025e-09
1.0090352e-09
2.3978609e-09
3.0464522e-09
3.1554147e-09
2.5665116e-09
1.6901964e-09
3.5372295e-10
-8.1035837e-10
-2.4054149e-09
-4.0951267e-09
-3.5209178e-09
-4.3238322e-09
-4.1900334e-09
-2.7365044e-09
-4.4230192e-10
7.232551e-10
1.2792015e-09
1.4454788e-09
1.165333e-09
3.9159498e-10
2.1827133e-10
6.8217337e-11
-1.2765959e-10
-9.3595193e-10
-2.1219749e-09
-1.4864487e-09
-3.251791e-09
-3.8394118e-09
-2.7464705e-09
-8.4807857e-10
5.8636662e-10
8.0404745e-10
7.3924495e-10
-9.34123e-11
-1.4199603e-09
-1.5548841e-09
-4.8710452e-10
1.182655e-10
4.2134017e-11
-4.571629e-10
-3.6273018e-10
-2.7564276e-09
-3.7277533e-09
-2.8443596e-09
-1.4067645e-09
2.3832103e-10
5.5017678e-10
4.1707524e-10
-7.557106e-10
-2.3389659e-09
-2.6567448e-09
-8.0229644e-10
2.5284122e-10
5.2752932e-10
3.7763767e-10
-6.3959237e-06
1.6029782e-05
-2.2435614e-07
2.9109426e-06
-0.0001170319
-3.0404769e-06