/*--------------------------------*- C++ -*----------------------------------*\
| =========                 |                                                 |
| \\      /  F ield         | OpenFOAM: The Open Source CFD Toolbox           |
|  \\    /   O peration     | Version:  3.0.1                                 |
|   \\  /    A nd           | Web:      www.OpenFOAM.org                      |
|    \\/     M anipulation  |                                                 |
\*---------------------------------------------------------------------------*/
FoamFile
{
    version     2.0;
    format      ascii;
    class       volScalarField;
    location    "0.1";
    object      sigmaxx;
}
// * * * * * * * * * * * * * * * * * * * * * * * * * * * * * * * * * * * * * //

dimensions      [0 2 -2 0 0 0 0];

internalField   nonuniform List<scalar> 
3375
(
-8.2645197e-06
-8.3462027e-06
-7.1298105e-06
2.2398646e-06
1.0680995e-05
1.8598628e-05
2.6959069e-05
-2.3679283e-07
-1.9739586e-05
3.3660565e-06
-1.1596681e-05
0.00016226866
-1.3467789e-05
-0.00017789221
2.2558682e-05
4.4289783e-07
-2.5742365e-06
-5.3360853e-06
-2.4727317e-06
3.0012635e-06
2.8316932e-06
7.9291693e-07
8.5274845e-07
1.2986267e-06
-1.3840984e-06
-1.0413244e-05
-1.7688854e-05
8.8081183e-07
1.9377804e-05
1.039844e-05
1.9219424e-06
-6.8863877e-07
-2.3982966e-06
-1.5875636e-06
1.0773449e-06
1.5326571e-06
4.3150829e-07
3.5101652e-07
-9.0755433e-09
-2.6839502e-06
-6.9691993e-06
-1.1240469e-05
8.4155053e-07
1.2606926e-05
6.8200498e-06
1.7207519e-06
1.0292721e-07
-8.1724954e-07
-5.4385443e-07
4.7384811e-07
8.072028e-07
4.1254747e-07
-6.2866273e-08
-8.067252e-07
-2.2023093e-06
-3.7226176e-06
-3.8438458e-06
3.5078751e-07
4.4054665e-06
3.7212266e-06
1.2066617e-06
3.7734057e-07
-1.2791926e-07
-9.9841531e-08
2.3103714e-07
3.4671274e-07
1.4001127e-07
-2.4175827e-07
-7.8465203e-07
-1.4731951e-06
-1.9583736e-06
-1.5750579e-06
1.6434686e-07
1.8244618e-06
1.9569492e-06
7.8427383e-07
3.9595588e-07
1.1848474e-07
6.0175509e-08
1.2692992e-07
1.2375314e-07
-1.9065044e-08
-2.7209129e-07
-5.9969016e-07
-9.2234474e-07
-1.0471368e-06
-7.2666189e-07
7.8656373e-08
8.4043617e-07
1.0409733e-06
4.968198e-07
3.2397668e-07
1.7298439e-07
1.0041365e-07
7.6673381e-08
2.9991283e-08
-7.7187947e-08
-2.3762648e-07
-4.2065059e-07
-5.652744e-07
-5.7569652e-07
-3.6483338e-07
3.6989753e-08
4.1697797e-07
5.6936022e-07
3.1366488e-07
2.3880415e-07
1.5578298e-07
9.4763256e-08
4.9751772e-08
-5.1151118e-09
-8.4818149e-08
-1.8490792e-07
-2.8430126e-07
-3.4633433e-07
-3.2613874e-07
-1.9592424e-07
1.6258382e-08
2.1872188e-07
3.2222999e-07
1.987486e-07
1.6750468e-07
1.2115118e-07
7.6096485e-08
3.3240174e-08
-1.524474e-08
-7.3237183e-08
-1.3578826e-07
-1.8944863e-07
-2.1446133e-07
-1.9107888e-07
-1.1126533e-07
6.6902762e-09
1.2055716e-07
1.8883867e-07
1.2719381e-07
1.1532305e-07
8.8749343e-08
5.6456025e-08
2.2082505e-08
-1.5964241e-08
-5.68494e-08
-9.6720294e-08
-1.2599592e-07
-1.3513886e-07
-1.1577487e-07
-6.6328209e-08
2.5134815e-09
6.9035212e-08
1.1378911e-07
8.2184757e-08
7.801345e-08
6.27508e-08
4.0450371e-08
1.4311096e-08
-1.3487825e-08
-4.1997418e-08
-6.7029293e-08
-8.3834755e-08
-8.6291416e-08
-7.1665509e-08
-4.0779912e-08
8.8230067e-11
4.0903998e-08
7.0135481e-08
5.4199007e-08
5.3097649e-08
4.3707097e-08
2.8328501e-08
9.2059902e-09
-1.0667815e-08
-3.0277378e-08
-4.6154438e-08
-5.5838135e-08
-5.5846791e-08
-4.5497937e-08
-2.5548395e-08
-8.0003218e-10
2.4497239e-08
4.4300681e-08
3.7346635e-08
3.7752775e-08
3.1682016e-08
2.0553354e-08
6.3111192e-09
-8.4866253e-09
-2.2279513e-08
-3.2876688e-08
-3.8504003e-08
-3.7654381e-08
-3.0106248e-08
-1.6994188e-08
-1.1001367e-09
1.5459174e-08
2.9569376e-08
2.8826687e-08
3.0042646e-08
2.5669507e-08
1.6469491e-08
4.8488347e-09
-7.0651097e-09
-1.760619e-08
-2.5546785e-08
-2.9029204e-08
-2.7850054e-08
-2.2075045e-08
-1.2658001e-08
-9.9407175e-10
1.1233554e-08
2.2185512e-08
2.5525892e-08
2.7206291e-08
2.3604102e-08
1.4988574e-08
4.3097377e-09
-6.4036315e-09
-1.558712e-08
-2.2518271e-08
-2.518035e-08
-2.3726604e-08
-1.8704088e-08
-1.0859543e-08
-7.5737964e-10
9.8889181e-09
1.9366131e-08
2.6307872e-05
-2.2218508e-05
-4.0134019e-05
8.2557075e-05
-4.0840306e-06
-8.6816058e-05
1.8175809e-06
-8.7560113e-06
7.722952e-06
3.2409819e-06
-7.0616598e-06
3.4878462e-06
-1.0172899e-05
7.1888662e-06
4.6932897e-05
6.7271313e-07
-7.9529808e-07
-2.5775246e-06
-5.4781878e-06
-3.4258667e-07
4.4996863e-06
2.092044e-06
4.1685059e-07
1.0359753e-06
2.2961583e-08
-6.8459218e-06
-1.3016176e-05
-1.958849e-06
1.286505e-05
9.4163301e-06
1.8381787e-06
4.4942498e-07
-9.1016841e-07
-3.7294809e-06
-1.3437573e-08
3.4729542e-06
1.41825e-06
5.7329311e-07
-2.1332352e-07
-1.7412654e-06
-5.4505804e-06
-8.6293591e-06
-1.4466259e-06
7.9521805e-06
6.4276485e-06
1.9141019e-06
5.410365e-07
-3.8978535e-07
-9.0646925e-07
3.8187483e-08
9.0608649e-07
5.5923106e-07
7.7102658e-08
-6.0190912e-07
-1.7255128e-06
-3.2808405e-06
-3.7885044e-06
-5.5188292e-07
3.4883826e-06
3.717178e-06
1.3079274e-06
5.5795226e-07
2.6520401e-08
-1.6633014e-07
6.0624047e-08
2.6832711e-07
1.4095184e-07
-1.6713074e-07
-6.3130619e-07
-1.2510697e-06
-1.8134134e-06
-1.6636281e-06
-1.707535e-07
1.552353e-06
1.9385323e-06
8.1747894e-07
4.6509904e-07
1.7717173e-07
4.7975859e-08
6.329847e-08
7.4157065e-08
-2.8654929e-08
-2.3281434e-07
-5.1559033e-07
-8.1956935e-07
-9.9149097e-07
-7.7181231e-07
-4.9089987e-08
7.3244729e-07
1.0142746e-06
5.0389574e-07
3.4880374e-07
1.9488489e-07
9.8699137e-08
5.4509612e-08
9.2837722e-09
-7.9847095e-08
-2.1589409e-07
-3.7782042e-07
-5.1783637e-07
-5.5096023e-07
-3.8270573e-07
-1.358348e-08
3.6847606e-07
5.484787e-07
3.1292284e-07
2.4695183e-07
1.6404465e-07
9.511894e-08
4.268193e-08
-1.184606e-08
-8.3683618e-08
-1.7254041e-07
-2.6261893e-07
-3.2427796e-07
-3.146982e-07
-2.0265759e-07
-4.3538426e-09
1.9625101e-07
3.0894277e-07
1.963025e-07
1.6922829e-07
1.2377994e-07
7.6306485e-08
3.0981498e-08
-1.651526e-08
-7.106917e-08
-1.2850853e-07
-1.7825059e-07
-2.0375615e-07
-1.8535052e-07
-1.1374399e-07
-2.2772763e-09
1.0957528e-07
1.8049947e-07
1.2439175e-07
1.1474324e-07
8.9211917e-08
5.6679502e-08
2.156751e-08
-1.5873455e-08
-5.5035349e-08
-9.2190826e-08
-1.1980381e-07
-1.2929269e-07
-1.1265412e-07
-6.6964689e-08
-1.374259e-09
6.374009e-08
1.0879614e-07
8.065247e-08
7.7752494e-08
6.2917192e-08
4.0546744e-08
1.4495927e-08
-1.303512e-08
-4.049173e-08
-6.459235e-08
-8.0643494e-08
-8.3289465e-08
-7.0007759e-08
-4.0753361e-08
-1.430735e-09
3.8281695e-08
6.7663329e-08
5.3908184e-08
5.3586258e-08
4.4533636e-08
2.8938897e-08
9.7058424e-09
-1.021016e-08
-2.9343021e-08
-4.5029746e-08
-5.4308442e-08
-5.4632598e-08
-4.5102102e-08
-2.6002247e-08
-1.4229154e-09
2.364907e-08
4.3595368e-08
3.7543098e-08
3.8261247e-08
3.2462178e-08
2.1203831e-08
6.6613867e-09
-8.0731964e-09
-2.1652287e-08
-3.2189833e-08
-3.7755995e-08
-3.7188495e-08
-3.0153587e-08
-1.7528992e-08
-1.605327e-09
1.5100437e-08
2.9387486e-08
2.8293052e-08
2.9702569e-08
2.5664292e-08
1.6726968e-08
4.9028655e-09
-6.9240628e-09
-1.7120904e-08
-2.4655992e-08
-2.8175443e-08
-2.7097553e-08
-2.1794258e-08
-1.2878975e-08
-1.6542654e-09
1.0538637e-08
2.1510892e-08
2.4281318e-08
2.6084592e-08
2.2803712e-08
1.4734011e-08
4.0642016e-09
-6.4975244e-09
-1.5092412e-08
-2.1301175e-08
-2.3906242e-08
-2.2526813e-08
-1.7952164e-08
-1.0815489e-08
-1.5500059e-09
8.7512854e-09
1.8177344e-08
-1.3144973e-05
-1.7453158e-05
4.2375917e-06
9.5140226e-06
-8.8466473e-06
-1.0119747e-06
-2.8714574e-06
-1.0223094e-05
3.3286459e-05
1.8608065e-05
-9.318493e-06
0.0001846658
0.00018771288
-0.00018630841
-0.00018883661
1.231005e-06
-3.6418564e-06
-2.9187284e-06
-2.8810078e-06
-9.6691503e-07
1.3490936e-06
1.2598379e-06
1.3256117e-06
2.3582802e-06
2.7650638e-06
-5.1865962e-06
-2.0549385e-05
-9.5424912e-06
1.8204817e-05
1.7196986e-05
3.4831843e-06
-8.55659e-08
-1.2899579e-06
-1.946723e-06
-7.102315e-07
8.5401533e-07
1.1238971e-06
7.942253e-07
6.3794083e-08
-7.3608088e-07
-5.2460528e-06
-1.3946867e-05
-7.3002134e-06
1.1878986e-05
1.3066478e-05
2.3619443e-06
6.1170952e-07
-2.7380344e-07
-6.448474e-07
-2.9264086e-07
2.8729341e-07
4.0436033e-07
1.6414325e-07
-3.1360818e-07
-1.2773297e-06
-3.1855564e-06
-4.7613377e-06
-1.7455574e-06
3.8509554e-06
4.8183971e-06
1.412262e-06
6.2824159e-07
1.0724803e-07
-1.2623584e-07
-6.9014987e-08
8.1211746e-08
7.2730481e-08
-1.1370384e-07
-4.656716e-07
-1.0435075e-06
-1.737056e-06
-1.863167e-06
-4.7623151e-07
1.5005069e-06
2.0841621e-06
8.3351123e-07
4.9426297e-07
2.113707e-07
5.3740372e-08
1.4553302e-08
1.0555354e-08
-5.2677304e-08
-1.9985762e-07
-4.2943324e-07
-7.2029265e-07
-9.4211682e-07
-8.1590117e-07
-1.4771273e-07
6.7007346e-07
1.0064329e-06
4.9897858e-07
3.5679128e-07
2.062895e-07
9.8674231e-08
3.6704446e-08
-1.2339848e-08
-8.5210564e-08
-1.9509251e-07
-3.3371152e-07
-4.690863e-07
-5.2287897e-07
-3.9237589e-07
-5.1190134e-08
3.30362e-07
5.2647955e-07
3.046283e-07
2.4640716e-07
1.6625101e-07
9.4165713e-08
3.6649727e-08
-1.8493354e-08
-8.2689709e-08
-1.5949691e-07
-2.3941074e-07
-2.9905283e-07
-2.9921948e-07
-2.0416316e-07
-2.0440141e-08
1.7546858e-07
2.9329918e-07
1.8974134e-07
1.6668241e-07
1.2324095e-07
7.5490476e-08
2.9321126e-08
-1.7905527e-08
-6.8394405e-08
-1.2018005e-07
-1.6542136e-07
-1.9061112e-07
-1.7657806e-07
-1.1333566e-07
-9.4813815e-09
9.8567757e-08
1.7065604e-07
1.2032169e-07
1.1273919e-07
8.847552e-08
5.6183176e-08
2.1211159e-08
-1.5178511e-08
-5.2129257e-08
-8.6691909e-08
-1.1235495e-07
-1.22148e-07
-1.0798256e-07
-6.6392706e-08
-4.6345815e-09
5.8056608e-08
1.0291896e-07
7.8127345e-08
7.667246e-08
6.2595248e-08
4.0608074e-08
1.4932368e-08
-1.2266596e-08
-3.8397274e-08
-6.1234309e-08
-7.6737509e-08
-7.9531294e-08
-6.7397525e-08
-4.0173945e-08
-2.9261469e-09
3.5370113e-08
6.4570113e-08
5.2428253e-08
5.3001893e-08
4.4473319e-08
2.9074132e-08
1.0106359e-08
-9.7154273e-09
-2.7949151e-08
-4.3050238e-08
-5.2081316e-08
-5.2578247e-08
-4.3570464e-08
-2.5637271e-08
-2.1154515e-09
2.2145785e-08
4.1848928e-08
3.6591057e-08
3.7882844e-08
3.2469465e-08
2.1323441e-08
6.8383684e-09
-7.8133012e-09
-2.081868e-08
-3.0959042e-08
-3.6324552e-08
-3.5860037e-08
-2.9040283e-08
-1.7277573e-08
-2.0895934e-09
1.4056912e-08
2.8071982e-08
2.7327863e-08
2.9188934e-08
2.5481337e-08
1.6676728e-08
4.7680138e-09
-6.8079142e-09
-1.660006e-08
-2.3680093e-08
-2.69011e-08
-2.5726637e-08
-2.0808325e-08
-1.269179e-08
-2.1999929e-09
9.4974563e-09
2.0248792e-08
2.3226689e-08
2.54203e-08
2.2403252e-08
1.4477717e-08
3.6720687e-09
-6.4646893e-09
-1.4663574e-08
-2.0343712e-08
-2.2582736e-08
-2.1002159e-08
-1.6980666e-08
-1.0724238e-08
-2.2050008e-09
7.6670489e-09
1.6918451e-08
6.209008e-06
-1.5864219e-05
-1.4827986e-06
-4.7388417e-06
8.6293595e-05
3.1950517e-05
-8.7673002e-05
3.9553298e-05
1.1073592e-05
-5.1138923e-05
-9.5021891e-06
-2.8687978e-05
2.5836379e-05
1.2597564e-05
-1.4420859e-05
5.7126545e-07
-2.5896633e-06
-6.6833977e-07
-9.2682027e-07
-3.0725758e-06
-2.271792e-08
2.421494e-06
6.8978179e-07
3.1500751e-06
3.6450788e-06
-5.6991743e-06
-1.4798801e-05
-5.4062846e-06
1.184386e-05
1.0862181e-05
2.2324954e-06
-2.0978425e-07
-4.1286542e-07
-7.9791818e-07
-2.8707796e-06
-7.8907349e-07
1.7758558e-06
1.0694821e-07
1.5616304e-06
1.2541102e-06
-4.5095279e-06
-9.1670727e-06
-3.5774829e-06
7.4797089e-06
7.9261058e-06
1.9335395e-06
4.9684912e-07
-3.7859529e-08
-3.2199046e-07
-6.6178562e-07
-2.3206296e-07
2.1903515e-07
1.3383519e-07
2.3533048e-07
-6.6319253e-07
-2.8165934e-06
-4.0275628e-06
-1.2262621e-06
3.1544569e-06
3.8174673e-06
1.2610212e-06
5.8205497e-07
1.7711718e-07
-3.7406223e-08
-1.4876694e-07
-8.3552067e-08
-2.6882087e-08
-8.5382208e-08
-2.5920152e-07
-8.0901711e-07
-1.573786e-06
-1.7247197e-06
-4.3171204e-07
1.3230832e-06
1.8286774e-06
7.6979141e-07
4.7301067e-07
2.3114124e-07
7.7569058e-08
-7.5955312e-09
-4.0689718e-08
-8.2513078e-08
-1.7327024e-07
-3.3987546e-07
-6.1595792e-07
-8.645489e-07
-7.7832034e-07
-1.6182767e-07
5.9679636e-07
9.1352902e-07
4.6640128e-07
3.4272256e-07
2.0851863e-07
1.0311315e-07
2.8473697e-08
-2.7597634e-08
-9.0260016e-08
-1.7569288e-07
-2.8989624e-07
-4.1802682e-07
-4.8429198e-07
-3.7782487e-07
-6.5356799e-08
2.9316155e-07
4.8241019e-07
2.8614793e-07
2.3635697e-07
1.6345988e-07
9.3575041e-08
3.3311679e-08
-2.1916614e-08
-8.0595549e-08
-1.4631903e-07
-2.1618401e-07
-2.7214093e-07
-2.7963179e-07
-1.9736762e-07
-2.903962e-08
1.5562194e-07
2.7007342e-07
1.7922934e-07
1.6029564e-07
1.2045986e-07
7.4429766e-08
2.8310488e-08
-1.7757285e-08
-6.4882379e-08
-1.1157996e-07
-1.5250826e-07
-1.7609913e-07
-1.66431e-07
-1.099236e-07
-1.4010462e-08
8.8280371e-08
1.5843179e-07
1.1468841e-07
1.0903146e-07
8.6717906e-08
5.5560186e-08
2.1230743e-08
-1.42201e-08
-4.913123e-08
-8.1324312e-08
-1.0499776e-07
-1.145659e-07
-1.0222929e-07
-6.4533061e-08
-6.7758501e-09
5.2888782e-08
9.6620254e-08
7.5074033e-08
7.4526311e-08
6.1410012e-08
4.0166136e-08
1.4996814e-08
-1.1019631e-08
-3.586558e-08
-5.7158741e-08
-7.1841131e-08
-7.4897489e-08
-6.4091041e-08
-3.8850006e-08
-3.9100953e-09
3.2614318e-08
6.0803756e-08
5.0127066e-08
5.1479071e-08
4.3593e-08
2.8655832e-08
1.0039445e-08
-8.8972948e-09
-2.6287642e-08
-4.047429e-08
-4.9093858e-08
-4.9428355e-08
-4.1484647e-08
-2.4683485e-08
-2.6638985e-09
2.0377486e-08
3.9262237e-08
3.4882262e-08
3.6861192e-08
3.1924415e-08
2.1039512e-08
6.7619356e-09
-7.4992828e-09
-1.9873273e-08
-2.9442198e-08
-3.4466319e-08
-3.3752266e-08
-2.7400983e-08
-1.6557607e-08
-2.3465805e-09
1.292252e-08
2.6310422e-08
2.6310808e-08
2.859281e-08
2.5202946e-08
1.6453534e-08
4.6027027e-09
-6.8334189e-09
-1.6135131e-08
-2.2866815e-08
-2.5729587e-08
-2.4358121e-08
-1.9432544e-08
-1.21289e-08
-2.2555758e-09
8.8869074e-09
1.9198155e-08
2.25786e-08
2.4994702e-08
2.2243857e-08
1.4277239e-08
3.4711516e-09
-6.6474509e-09
-1.4492821e-08
-1.9928756e-08
-2.1790015e-08
-2.0040851e-08
-1.5749238e-08
-1.0175273e-08
-2.1488307e-09
7.3663799e-09
1.620232e-08
-6.8210627e-06
3.88107e-05
-1.3624093e-05
-2.5912562e-05
-6.9220986e-06
-1.679434e-05
0.00014004981
5.1935071e-06
-0.00013447189
1.4998627e-05
-4.1315822e-06
0.0002496524
-2.0628221e-05
-0.00024086285
2.1467928e-05
-1.5137666e-06
-4.6982077e-06
-6.4952654e-07
2.238582e-06
1.2329736e-06
-9.3067618e-07
-4.9091302e-06
1.2785208e-06
8.7634069e-06
4.2262451e-06
-8.6655163e-06
-2.1089829e-05
-3.23296e-06
1.8072167e-05
9.8773067e-06
1.1435568e-06
-1.9015427e-06
-2.6237978e-08
1.203079e-06
8.5051672e-08
-7.775142e-07
-3.9610377e-06
5.6288587e-07
5.586026e-06
7.1882895e-07
-5.9254983e-06
-1.4354747e-05
-1.4939473e-06
1.2629717e-05
6.5152091e-06
1.4362003e-06
9.9479918e-08
1.0664019e-07
2.4842891e-07
-1.0388557e-07
-3.6630845e-07
-7.4514394e-07
1.6572495e-07
9.519975e-07
-5.7515268e-07
-2.9422103e-06
-4.4722399e-06
-7.2983625e-07
3.6843496e-06
3.2420395e-06
1.0405107e-06
4.5414637e-07
2.2107955e-07
1.2320165e-07
-3.0587208e-08
-1.3372508e-07
-2.0126779e-07
-7.027833e-08
-8.6708177e-08
-7.0017869e-07
-1.4916948e-06
-1.6747541e-06
-3.2425344e-07
1.2938702e-06
1.5729651e-06
6.6871258e-07
4.1936235e-07
2.3718974e-07
1.1986133e-07
2.0465436e-08
-5.3074086e-08
-1.1178409e-07
-1.5474807e-07
-2.7431816e-07
-5.4380535e-07
-7.9382565e-07
-7.2560425e-07
-1.4364572e-07
5.3780902e-07
7.9624627e-07
4.1724371e-07
3.1482281e-07
2.0437005e-07
1.1271749e-07
3.5319549e-08
-2.9301331e-08
-9.0399305e-08
-1.5868823e-07
-2.5557649e-07
-3.7576234e-07
-4.427758e-07
-3.5002222e-07
-6.5361806e-08
2.5775927e-07
4.2679994e-07
2.6144491e-07
2.2062404e-07
1.5749252e-07
9.4137898e-08
3.4838252e-08
-2.0561944e-08
-7.5828265e-08
-1.3376227e-07
-1.9667586e-07
-2.4860118e-07
-2.5732702e-07
-1.8384424e-07
-3.162806e-08
1.3713527e-07
2.4240414e-07
1.6625205e-07
1.5148578e-07
1.1604178e-07
7.3380832e-08
2.8659243e-08
-1.6298031e-08
-6.0534743e-08
-1.0309893e-07
-1.4141683e-07
-1.6336072e-07
-1.5503232e-07
-1.0340176e-07
-1.6083934e-08
7.8832836e-08
1.4466182e-07
1.0824645e-07
1.0445051e-07
8.3957135e-08
5.4308123e-08
2.1051013e-08
-1.2925677e-08
-4.5991202e-08
-7.5900963e-08
-9.8446971e-08
-1.0749895e-07
-9.5780812e-08
-6.0934429e-08
-7.6096555e-09
4.8085992e-08
8.9585463e-08
7.1657043e-08
7.1848274e-08
5.9870489e-08
3.9476777e-08
1.5074204e-08
-1.006182e-08
-3.3716925e-08
-5.374283e-08
-6.7520761e-08
-7.0505252e-08
-5.9536312e-08
-3.663086e-08
-4.1547766e-09
3.0310733e-08
5.7060218e-08
4.7749935e-08
4.9844511e-08
4.2533714e-08
2.8098988e-08
9.9971432e-09
-8.1554678e-09
-2.4588983e-08
-3.7900053e-08
-4.6273576e-08
-4.6401437e-08
-3.8527726e-08
-2.3111512e-08
-3.0112445e-09
1.8592973e-08
3.6580521e-08
3.3168359e-08
3.5986622e-08
3.1466895e-08
2.0720367e-08
6.6722129e-09
-7.1767491e-09
-1.8897222e-08
-2.7934636e-08
-3.2693545e-08
-3.1466456e-08
-2.5522879e-08
-1.565255e-08
-2.60209e-09
1.1796764e-08
2.4636837e-08
2.5377021e-08
2.8308329e-08
2.529906e-08
1.6299089e-08
4.3526523e-09
-6.9475141e-09
-1.5818728e-08
-2.2318144e-08
-2.4689812e-08
-2.274936e-08
-1.8066336e-08
-1.1541198e-08
-2.1516118e-09
8.6577422e-09
1.8413673e-08
2.2005256e-08
2.4870686e-08
2.259123e-08
1.4180152e-08
3.1315271e-09
-6.9998514e-09
-1.4566772e-08
-1.9955948e-08
-2.1201436e-08
-1.8779832e-08
-1.4682084e-08
-9.6906299e-09
-1.8597901e-09
7.7066107e-09
1.5842258e-08
1.0930157e-07
-5.1828627e-06
-9.138891e-06
-4.3971083e-06
1.0077662e-05
-2.6147436e-06
4.39475e-06
1.8659096e-06
-9.5594861e-06
3.1069139e-05
-8.3187776e-06
5.2314685e-05
4.4541777e-06
-7.8361731e-05
1.3284067e-05
6.4954937e-08
-3.2380739e-06
-7.5305978e-07
1.8611474e-06
-6.2038835e-08
-1.4830647e-06
-1.3752988e-06
1.4437622e-06
4.2790652e-06
1.3622436e-06
-5.8685118e-06
-1.1784222e-05
-2.013959e-06
1.039258e-05
7.1775867e-06
1.1166154e-06
-1.3555123e-06
-2.3689605e-08
1.389148e-06
3.605605e-08
-6.2431556e-07
-1.0607113e-06
6.5538112e-07
2.1676203e-06
-7.5401625e-07
-4.3029738e-06
-7.9297092e-06
-1.1678345e-06
7.2085335e-06
4.6522299e-06
1.1561552e-06
6.681635e-09
1.3820636e-07
4.8691503e-07
9.6052542e-08
-2.0585019e-07
-3.1729704e-07
1.6523798e-07
3.7755732e-07
-8.1813175e-07
-2.3699689e-06
-3.0930945e-06
-5.4341457e-07
2.4977847e-06
2.4321791e-06
8.5322482e-07
3.6360096e-07
2.2604414e-07
2.1892643e-07
6.6637151e-08
-6.3668213e-08
-1.1925791e-07
-6.0944642e-08
-1.6335704e-07
-6.8880671e-07
-1.2654599e-06
-1.3088464e-06
-2.6047858e-07
9.6915106e-07
1.2412398e-06
5.6703266e-07
3.629868e-07
2.2846867e-07
1.4700141e-07
5.2261819e-08
-2.7215516e-08
-8.6629682e-08
-1.3969853e-07
-2.6653773e-07
-5.0353157e-07
-6.96303e-07
-6.0994882e-07
-1.2592332e-07
4.2904232e-07
6.5678042e-07
3.6637811e-07
2.8319759e-07
1.9381912e-07
1.1718898e-07
4.5071467e-08
-1.8609155e-08
-7.8329633e-08
-1.4575072e-07
-2.3764835e-07
-3.4512704e-07
-3.9787553e-07
-3.0856109e-07
-6.0207902e-08
2.1584797e-07
3.667358e-07
2.360623e-07
2.033967e-07
1.5023345e-07
9.327963e-08
3.7675498e-08
-1.5649773e-08
-6.7942817e-08
-1.246216e-07
-1.8210481e-07
-2.2978112e-07
-2.3515292e-07
-1.6732041e-07
-2.9349645e-08
1.2015173e-07
2.1588593e-07
1.5347622e-07
1.4173641e-07
1.1092417e-07
7.1276315e-08
2.9043564e-08
-1.3556767e-08
-5.5484976e-08
-9.6949011e-08
-1.3109748e-07
-1.5161096e-07
-1.4385387e-07
-9.6198281e-08
-1.4679331e-08
7.1729343e-08
1.3227174e-07
1.0150161e-07
9.881371e-08
8.0520395e-08
5.276558e-08
2.0862341e-08
-1.1020086e-08
-4.2588087e-08
-7.1249916e-08
-9.2325551e-08
-9.9992814e-08
-8.9794339e-08
-5.6871185e-08
-7.3364604e-09
4.4761732e-08
8.3453843e-08
6.7682244e-08
6.8849922e-08
5.769667e-08
3.8145254e-08
1.4538175e-08
-9.6501305e-09
-3.2379148e-08
-5.1643114e-08
-6.4162679e-08
-6.6745653e-08
-5.701633e-08
-3.4894138e-08
-3.5302666e-09
2.8404151e-08
5.3587285e-08
4.5513469e-08
4.8056703e-08
4.13708e-08
2.7345772e-08
9.8006908e-09
-7.8888468e-09
-2.3763679e-08
-3.6875117e-08
-4.4223134e-08
-4.4212741e-08
-3.6342168e-08
-2.2064848e-08
-2.4366421e-09
1.7795965e-08
3.472165e-08
3.1989364e-08
3.5086426e-08
3.090544e-08
2.0353747e-08
6.5487377e-09
-6.8880297e-09
-1.8131793e-08
-2.6882492e-08
-3.1152238e-08
-2.9813269e-08
-2.3871367e-08
-1.4630435e-08
-2.1144871e-09
1.1482116e-08
2.3417416e-08
2.4506651e-08
2.7827151e-08
2.4988513e-08
1.6222833e-08
4.3946368e-09
-6.692544e-09
-1.5342222e-08
-2.1532961e-08
-2.4029165e-08
-2.1601247e-08
-1.6807394e-08
-1.0546267e-08
-1.9486951e-09
8.3464652e-09
1.7510938e-08
2.115295e-08
2.4543838e-08
2.2322254e-08
1.4213709e-08
3.2694159e-09
-6.770321e-09
-1.4221872e-08
-1.9210671e-08
-2.1037719e-08
-1.7978261e-08
-1.3628982e-08
-8.6842173e-09
-1.8832328e-09
7.1825263e-09
1.4944683e-08
-9.3421621e-06
0.00012537197
-6.1255029e-06
-0.00012030191
-4.8451539e-07
-1.8714544e-05
9.7381343e-07
3.5718614e-06
1.6469319e-06
-2.6008598e-06
4.7453482e-07
-1.816669e-06
1.3624165e-05
1.5595104e-05
-1.8713136e-06
2.1708108e-06
-5.8142583e-06
-1.3295964e-06
4.6614297e-06
1.2549955e-07
-1.830859e-06
-8.7298852e-07
1.0332704e-06
2.2072509e-06
-2.5605274e-07
-4.1775395e-06
-6.5287093e-06
-1.4227468e-06
5.2799927e-06
6.756567e-06
1.6420455e-06
-3.9084835e-06
-4.2436426e-07
3.8775986e-06
6.9470645e-07
-9.6165817e-08
-9.6451245e-08
5.5604085e-07
7.0948494e-07
-9.2028999e-07
-3.0538231e-06
-4.0029963e-06
-1.1958541e-06
2.5422734e-06
3.6834275e-06
1.0892697e-06
-3.6485668e-07
2.7820905e-08
8.3252119e-07
2.9177381e-07
3.7289357e-08
6.2325045e-08
1.7673831e-07
-4.1323276e-08
-9.0032854e-07
-1.7997864e-06
-1.9316342e-06
-5.079023e-07
1.2316882e-06
1.8036175e-06
7.4656872e-07
2.7166168e-07
1.8383354e-07
2.611791e-07
1.2230231e-07
3.247388e-08
1.1817229e-08
-3.8673765e-08
-2.5870115e-07
-6.8523982e-07
-1.0373194e-06
-9.5138019e-07
-2.3023358e-07
6.1216993e-07
9.6202977e-07
4.9978363e-07
3.2021859e-07
2.0443348e-07
1.4696413e-07
6.922556e-08
1.0005577e-08
-3.8914578e-08
-1.2154403e-07
-2.7655314e-07
-4.8155118e-07
-6.0251404e-07
-4.8970185e-07
-1.0745807e-07
3.235004e-07
5.4265418e-07
3.3000027e-07
2.5833612e-07
1.7839043e-07
1.1194259e-07
4.9602875e-08
-4.488648e-09
-5.985685e-08
-1.3375348e-07
-2.3141368e-07
-3.2698748e-07
-3.5726439e-07
-2.6396031e-07
-5.070669e-08
1.8215414e-07
3.2001687e-07
2.1755246e-07
1.8922945e-07
1.4064024e-07
8.8580203e-08
3.7890518e-08
-1.055216e-08
-6.0460065e-08
-1.1690626e-07
-1.7527706e-07
-2.183589e-07
-2.1645287e-07
-1.4906325e-07
-2.436952e-08
1.0853833e-07
1.9616602e-07
1.4407418e-07
1.3411518e-07
1.0544252e-07
6.8068352e-08
2.834336e-08
-1.185184e-08
-5.1856691e-08
-9.2100839e-08
-1.2638389e-07
-1.4514583e-07
-1.3411131e-07
-8.7545085e-08
-1.1584234e-08
6.7552989e-08
1.2342762e-07
9.6330496e-08
9.4275663e-08
7.6987004e-08
5.0288059e-08
2.0092707e-08
-1.0494887e-08
-4.0612227e-08
-6.879871e-08
-8.9212871e-08
-9.632571e-08
-8.4866887e-08
-5.2709856e-08
-5.6016438e-09
4.2945181e-08
7.8995424e-08
6.4541205e-08
6.5913699e-08
5.532923e-08
3.6908779e-08
1.4165062e-08
-9.348243e-09
-3.1339122e-08
-4.9874922e-08
-6.2443509e-08
-6.4293596e-08
-5.4219021e-08
-3.2594544e-08
-2.8716792e-09
2.7776891e-08
5.1552605e-08
4.4273854e-08
4.6727421e-08
4.0152134e-08
2.6637231e-08
9.5516931e-09
-7.7391247e-09
-2.337241e-08
-3.6071453e-08
-4.3199886e-08
-4.2774317e-08
-3.4874339e-08
-2.0791192e-08
-1.7167827e-09
1.7984222e-08
3.4215873e-08
3.1427771e-08
3.4494135e-08
3.039691e-08
2.0036382e-08
6.5833416e-09
-6.919618e-09
-1.8123775e-08
-2.679894e-08
-3.0708993e-08
-2.9125241e-08
-2.3068467e-08
-1.3968695e-08
-1.3589596e-09
1.2083823e-08
2.3442535e-08
2.3731651e-08
2.7260275e-08
2.4686026e-08
1.6109201e-08
4.6224091e-09
-6.3452061e-09
-1.5152398e-08
-2.1390818e-08
-2.3440395e-08
-2.0912674e-08
-1.6329943e-08
-1.0258515e-08
-1.4658672e-09
8.5466995e-09
1.7021604e-08
1.9885156e-08
2.3757942e-08
2.1915764e-08
1.4174516e-08
3.64578e-09
-6.1275638e-09
-1.3795276e-08
-1.8739063e-08
-2.0028601e-08
-1.693482e-08
-1.3106355e-08
-8.5534868e-09
-1.7026832e-09
6.785117e-09
1.3858321e-08
-6.991991e-05
-3.7134578e-06
3.5056469e-05
6.7831132e-06
-3.0006222e-05
1.9445575e-06
-1.2459634e-05
-7.3411141e-06
7.7901659e-06
3.9339905e-06
-2.0310656e-06
-7.6635145e-06
-5.9995439e-06
7.6034848e-05
7.5976962e-06
5.8347309e-06
-4.3598692e-07
-2.7438539e-06
-2.9588936e-07
-1.3979557e-06
-7.3804683e-07
2.315251e-06
1.8216339e-06
-2.7154045e-07
-2.4744603e-06
-3.2400492e-06
-2.3931499e-06
-6.118503e-07
3.6077267e-07
4.2740522e-06
4.1506857e-06
-1.8782223e-08
-1.549802e-06
5.0967417e-08
2.7800048e-08
3.7029098e-08
1.5284096e-06
1.1403646e-06
-3.9140263e-07
-1.8322423e-06
-2.3874076e-06
-1.8687589e-06
-7.0983724e-07
-6.6796479e-07
2.49433e-06
1.5549402e-06
3.2865829e-07
-2.0132308e-07
4.0686223e-08
-3.3677797e-08
1.3780881e-07
5.6244061e-07
3.5483651e-07
-3.5259046e-07
-1.1381652e-06
-1.509713e-06
-1.2257072e-06
-3.7825261e-07
4.4131752e-07
1.4188981e-06
8.056744e-07
3.7985177e-07
1.0955031e-07
6.2765165e-08
1.2399384e-08
7.9126892e-08
1.7202642e-07
2.1392263e-08
-3.4688014e-07
-7.4535284e-07
-9.1838599e-07
-7.102196e-07
-1.6683883e-07
4.1705495e-07
8.263501e-07
4.9206208e-07
3.2420451e-07
1.7041701e-07
8.6825759e-08
3.569584e-08
2.9045507e-08
1.402316e-08
-1.0035611e-07
-3.004848e-07
-4.9410573e-07
-5.5414159e-07
-4.0169642e-07
-7.1367237e-08
2.7901803e-07
4.9530237e-07
3.1864002e-07
2.4847059e-07
1.6086308e-07
9.0450468e-08
3.8769748e-08
2.5042993e-09
-4.2971433e-08
-1.2677747e-07
-2.3747195e-07
-3.279938e-07
-3.3730218e-07
-2.2969713e-07
-3.1187389e-08
1.7519497e-07
3.0414789e-07
2.1080637e-07
1.8150505e-07
1.3115593e-07
7.9426725e-08
3.2971447e-08
-8.3243398e-09
-5.5365417e-08
-1.144666e-07
-1.7656091e-07
-2.1707289e-07
-2.0799115e-07
-1.3470675e-07
-1.4279549e-08
1.0942698e-07
1.9091998e-07
1.4022831e-07
1.2946892e-07
1.0017923e-07
6.3615674e-08
2.595704e-08
-1.185074e-08
-5.0679256e-08
-9.1470675e-08
-1.266406e-07
-1.4376069e-07
-1.302077e-07
-8.0912146e-08
-6.1952722e-09
6.9367541e-08
1.2202132e-07
9.4558186e-08
9.1971143e-08
7.4360056e-08
4.799236e-08
1.9096007e-08
-1.0907252e-08
-4.0475323e-08
-6.8918861e-08
-8.924105e-08
-9.5661563e-08
-8.269453e-08
-4.9505486e-08
-2.4566895e-09
4.4263103e-08
7.883536e-08
6.3989927e-08
6.4879766e-08
5.4260607e-08
3.6123513e-08
1.3633466e-08
-9.3905671e-09
-3.132547e-08
-4.9494704e-08
-6.207335e-08
-6.3577518e-08
-5.3148758e-08
-3.0872446e-08
-1.1729275e-09
2.9017345e-08
5.1697077e-08
4.4230693e-08
4.6336775e-08
3.9701862e-08
2.6316397e-08
9.2050941e-09
-7.9400318e-09
-2.3594322e-08
-3.6053823e-08
-4.3154933e-08
-4.2438166e-08
-3.4552405e-08
-1.98969e-08
-6.6998672e-10
1.8978192e-08
3.4656109e-08
3.1381092e-08
3.4287013e-08
3.0227412e-08
1.9952213e-08
6.5401326e-09
-7.1880223e-09
-1.8390621e-08
-2.7028199e-08
-3.0923196e-08
-2.9178021e-08
-2.2907572e-08
-1.3462806e-08
-6.6718788e-10
1.2769691e-08
2.3825618e-08
2.3525685e-08
2.6991109e-08
2.4549373e-08
1.6108391e-08
4.6736729e-09
-6.3658901e-09
-1.5248761e-08
-2.1570131e-08
-2.353138e-08
-2.0927116e-08
-1.5979569e-08
-9.8820503e-09
-1.0565651e-09
8.7320866e-09
1.6892612e-08
1.9518735e-08
2.3427971e-08
2.1747372e-08
1.4163624e-08
3.6714005e-09
-6.0078041e-09
-1.3806908e-08
-1.8860306e-08
-1.9893994e-08
-1.6780712e-08
-1.250547e-08
-8.1899018e-09
-1.4178418e-09
6.6374055e-09
1.3333421e-08
-2.5918929e-05
-3.8547906e-06
9.8595114e-06
-7.7071415e-06
-7.3955159e-06
1.1451719e-05
2.4626991e-06
-6.7675177e-06
-9.9905525e-06
3.1629214e-06
-4.7621233e-06
-5.527354e-06
2.9529413e-06
3.5444611e-05
6.5950371e-06
4.7796599e-06
7.1056074e-07
-9.5575507e-07
-9.1140008e-07
-3.1544988e-06
-2.7380569e-07
4.2004967e-06
2.317241e-06
-1.841798e-06
-4.4936683e-06
-3.6836652e-06
-1.1830541e-06
6.8175e-10
8.119288e-07
3.6838445e-06
3.3631478e-06
9.4856325e-07
-7.2661157e-07
-8.7671016e-07
-2.0480272e-06
-5.4202782e-08
2.9383557e-06
1.6649577e-06
-7.6746631e-07
-2.7165365e-06
-2.5618415e-06
-1.2432313e-06
-2.5853072e-07
1.1191719e-07
2.2266188e-06
1.53014e-06
6.2216624e-07
-1.5946631e-07
-4.6840024e-07
-7.1590591e-07
1.4530352e-07
1.1215307e-06
5.8368547e-07
-5.558462e-07
-1.4907981e-06
-1.5842246e-06
-9.5173934e-07
-1.032357e-07
6.292527e-07
1.3954777e-06
8.3557441e-07
4.4249683e-07
6.2909909e-08
-1.3553069e-07
-1.9028407e-07
9.2954265e-08
3.4677734e-07
8.8831177e-08
-4.4353045e-07
-8.9145559e-07
-9.5130541e-07
-5.9666455e-07
-2.7224788e-08
5.0987842e-07
8.5930914e-07
5.1047344e-07
3.3105988e-07
1.3711038e-07
1.4871736e-08
-2.454484e-08
3.4957822e-08
6.1270025e-08
-9.0398109e-08
-3.5021383e-07
-5.5793609e-07
-5.7044632e-07
-3.5449725e-07
-2.7338903e-09
3.3330939e-07
5.267468e-07
3.2854624e-07
2.4642364e-07
1.438484e-07
6.4171408e-08
1.9961444e-08
3.5871968e-09
-3.2497014e-08
-1.3093386e-07
-2.6257663e-07
-3.5630147e-07
-3.4475478e-07
-2.0970081e-07
2.5253235e-09
2.0611941e-07
3.2476988e-07
2.1677147e-07
1.7999482e-07
1.236293e-07
6.9505488e-08
2.6097964e-08
-9.3540655e-09
-5.4680725e-08
-1.1976691e-07
-1.8952056e-07
-2.3077856e-07
-2.1139658e-07
-1.2545077e-07
2.282189e-09
1.2614121e-07
2.0221026e-07
1.441021e-07
1.2940681e-07
9.7411973e-08
5.9842491e-08
2.2731148e-08
-1.3029646e-08
-5.2120449e-08
-9.5437837e-08
-1.3376505e-07
-1.5060924e-07
-1.3220759e-07
-7.6623812e-08
1.9133285e-09
7.8202749e-08
1.2831155e-07
9.7151728e-08
9.2734694e-08
7.3746798e-08
4.6922801e-08
1.7757273e-08
-1.1923598e-08
-4.1951901e-08
-7.1501727e-08
-9.3012198e-08
-9.9116733e-08
-8.3871352e-08
-4.7608664e-08
1.7264098e-09
4.9109903e-08
8.3052143e-08
6.5645735e-08
6.5149729e-08
5.3990358e-08
3.5511696e-08
1.3091155e-08
-1.0178509e-08
-3.2350928e-08
-5.0953739e-08
-6.3790691e-08
-6.526875e-08
-5.3773883e-08
-3.0098628e-08
7.1039202e-10
3.1585052e-08
5.4149327e-08
4.5346444e-08
4.6509882e-08
3.959521e-08
2.6158319e-08
8.8295138e-09
-8.2702506e-09
-2.4264629e-08
-3.6783393e-08
-4.4090648e-08
-4.330768e-08
-3.4920075e-08
-1.9342007e-08
3.5299538e-10
2.0384408e-08
3.5871694e-08
3.1760016e-08
3.4250171e-08
3.0126044e-08
1.996621e-08
6.3853289e-09
-7.2673959e-09
-1.8751919e-08
-2.7449852e-08
-3.1498594e-08
-2.9624083e-08
-2.317941e-08
-1.3082159e-08
-4.6388941e-11
1.3529755e-08
2.4548083e-08
2.3619088e-08
2.6858315e-08
2.4369886e-08
1.6085423e-08
4.7485966e-09
-6.4738844e-09
-1.5429417e-08
-2.1971248e-08
-2.4049612e-08
-2.1423692e-08
-1.6318777e-08
-9.7570722e-09
-6.4429076e-10
9.2044596e-09
1.7511651e-08
1.9618004e-08
2.3253546e-08
2.1502972e-08
1.4023539e-08
3.8594927e-09
-6.2316628e-09
-1.4022822e-08
-1.9496492e-08
-2.0596049e-08
-1.7575242e-08
-1.3071818e-08
-8.2676091e-09
-1.0231329e-09