/*--------------------------------*- C++ -*----------------------------------*\
| =========                 |                                                 |
| \\      /  F ield         | OpenFOAM: The Open Source CFD Toolbox           |
|  \\    /   O peration     | Version:  3.0.1                                 |
|   \\  /    A nd           | Web:      www.OpenFOAM.org                      |
|    \\/     M anipulation  |                                                 |
\*---------------------------------------------------------------------------*/
FoamFile
{
    version     2.0;
    format      ascii;
    class       volScalarField;
    location    "0.1";
    object      sigmaxz;
}
// * * * * * * * * * * * * * * * * * * * * * * * * * * * * * * * * * * * * * //

dimensions      [0 2 -2 0 0 0 0];

internalField   nonuniform List<scalar> 
3375
(
1.3722747e-05
1.2774961e-05
1.660279e-05
1.6332978e-05
6.2389014e-05
-2.101181e-05
6.0387096e-06
4.4016336e-07
-7.2247374e-06
3.8447516e-06
-9.6494278e-06
1.3311075e-05
1.1357946e-05
-1.9520346e-05
1.74853e-06
-2.4187558e-06
-1.7209428e-06
4.1630995e-06
5.6548558e-06
-1.3691786e-06
-2.9164953e-06
-1.1174189e-06
-1.3059442e-06
-1.3358057e-06
1.399295e-08
4.4097144e-06
5.3387233e-06
-2.4838853e-07
-4.0784144e-06
-3.0437834e-06
-1.1813659e-06
-5.0129079e-07
1.3068669e-06
1.9259652e-06
7.7593723e-08
-1.0270205e-06
-9.3002301e-07
-8.5063633e-07
-5.9870788e-07
2.562727e-07
1.8074649e-06
2.2413621e-06
4.558059e-07
-1.3950829e-06
-1.5871976e-06
-5.5320714e-07
-2.0417319e-07
3.9535125e-07
6.1852572e-07
1.1648737e-07
-3.5752813e-07
-4.783514e-07
-4.4247735e-07
-2.4235003e-07
2.0552165e-07
7.8725259e-07
9.3671566e-07
3.3146244e-07
-4.293139e-07
-6.839156e-07
-2.4875152e-07
-1.0599049e-07
1.0212885e-07
1.855698e-07
4.3569253e-08
-1.3660151e-07
-2.1729476e-07
-2.025383e-07
-8.717441e-08
1.2725161e-07
3.5426439e-07
4.022067e-07
1.8090671e-07
-1.2360357e-07
-2.7394274e-07
-1.1106986e-07
-5.8574089e-08
1.4519681e-08
4.5977888e-08
6.2930709e-09
-5.8198801e-08
-9.5936197e-08
-8.61174e-08
-2.4622595e-08
7.2429259e-08
1.6251167e-07
1.7831831e-07
9.2896979e-08
-3.061351e-08
-1.0781441e-07
-5.0325008e-08
-3.4450232e-08
-7.1964503e-09
5.5942001e-09
-5.9371707e-09
-2.8100463e-08
-4.178335e-08
-3.4478994e-08
-4.016295e-09
4.0622371e-08
7.7381695e-08
8.1073895e-08
4.6756252e-08
-4.1960925e-09
-4.0944361e-08
-2.3476699e-08
-2.0658595e-08
-9.9821903e-09
-4.8823151e-09
-7.3773442e-09
-1.4446369e-08
-1.8794743e-08
-1.292176e-08
2.2931698e-09
2.2461104e-08
3.7268989e-08
3.8104756e-08
2.4744041e-08
2.619061e-09
-1.4951106e-08
-1.0968306e-08
-1.1474905e-08
-7.928065e-09
-6.3811944e-09
-6.026395e-09
-7.707646e-09
-8.6463735e-09
-4.3287443e-09
3.2654595e-09
1.2257273e-08
1.8485554e-08
1.906535e-08
1.354063e-08
2.8017702e-09
-5.9544108e-09
-5.2775905e-09
-5.8410362e-09
-5.5441494e-09
-4.9933649e-09
-5.0810796e-09
-4.9409149e-09
-3.9933703e-09
-1.748944e-09
2.7177683e-09
8.0034771e-09
1.0530609e-08
9.8394804e-09
6.9899011e-09
2.0501845e-09
-2.7109715e-09
-2.2278295e-09
-3.879437e-09
-4.3342347e-09
-3.76597e-09
-2.784587e-09
-2.6124741e-09
-2.4348503e-09
-7.6820963e-10
2.052397e-09
3.9386407e-09
5.6735252e-09
6.1657452e-09
3.8103039e-09
1.5052211e-09
-3.3824025e-10
-1.1002729e-09
-2.5437114e-09
-2.9236995e-09
-2.8745462e-09
-2.1254618e-09
-2.0671593e-09
-2.2724145e-09
-1.0561136e-09
8.399126e-10
2.201504e-09
3.6067845e-09
4.1453788e-09
3.0489609e-09
2.1867199e-09
9.3412022e-10
-3.6561257e-10
-1.2897785e-09
-1.6966509e-09
-1.83324e-09
-1.6728934e-09
-2.031034e-09
-2.2127463e-09
-1.1777425e-09
1.796744e-10
1.1761901e-09
2.3920886e-09
3.0086525e-09
2.4718905e-09
2.0154085e-09
1.0357931e-09
2.934466e-10
-2.97765e-11
-6.7292647e-10
-9.9153257e-10
-1.4758731e-09
-1.996073e-09
-1.7608813e-09
-8.6986112e-10
1.3011818e-10
8.6220285e-10
1.4882389e-09
1.8133256e-09
1.5866038e-09
1.1190131e-09
5.039754e-10
5.2689255e-10
6.3695543e-10
-2.0642342e-10
-5.7790103e-10
-1.4808841e-09
-1.857861e-09
-1.1040423e-09
-4.6768677e-10
2.1436238e-10
8.685939e-10
9.6586266e-10
9.4125286e-10
9.8949859e-10
5.2486401e-10
2.651595e-11
1.1946384e-05
1.7952286e-06
2.9335997e-07
4.6207749e-06
1.5634842e-06
-1.0762548e-05
-1.14527e-05
-2.1888449e-05
-1.8450723e-05
7.2683407e-06
-2.3184159e-06
1.9494259e-05
-1.0810204e-06
0.00011803632
-5.7947311e-06
2.3197476e-06
1.0749992e-06
1.8301622e-06
2.7387367e-06
5.173923e-07
-1.9514062e-06
-1.4925887e-06
-4.8048032e-07
-9.4104683e-07
2.8464231e-07
4.2099045e-06
5.7010058e-06
-2.0257307e-06
-8.9368879e-06
-2.8251473e-06
-2.112615e-08
1.6882056e-07
7.382622e-07
1.1458809e-06
3.6329957e-07
-6.8201886e-07
-9.0476793e-07
-7.3763207e-07
-4.8295022e-07
3.9718191e-07
1.6996064e-06
1.8699895e-06
-2.3907955e-07
-2.1099603e-06
-1.2055002e-06
-2.3232146e-07
-4.6806835e-08
2.4210011e-07
4.0979669e-07
1.4503386e-07
-2.7311786e-07
-4.6551734e-07
-4.387698e-07
-2.2141269e-07
2.3298826e-07
7.2296282e-07
7.642318e-07
1.3554391e-07
-4.9336594e-07
-4.8134554e-07
-1.5278773e-07
-6.8599598e-08
5.4996325e-08
1.1942513e-07
2.9875897e-08
-1.301773e-07
-2.2694096e-07
-2.1658315e-07
-9.1946932e-08
1.2476619e-07
3.298912e-07
3.5633939e-07
1.5028994e-07
-9.4330625e-08
-1.8421767e-07
-7.7903577e-08
-5.3141641e-08
-5.4573318e-09
1.9246167e-08
-1.1143302e-08
-7.0186034e-08
-1.0941046e-07
-1.0037029e-07
-3.502244e-08
6.9380384e-08
1.6047817e-07
1.763094e-07
1.032895e-07
-1.0312075e-09
-6.503734e-08
-3.8567e-08
-3.3552654e-08
-1.7870426e-08
-9.5294375e-09
-1.9976846e-08
-4.0721481e-08
-5.396236e-08
-4.5045325e-08
-1.0349597e-08
3.8786634e-08
8.0646721e-08
9.1221366e-08
6.3332482e-08
1.7067357e-08
-2.1479437e-08
-1.9065023e-08
-1.9978618e-08
-1.5985919e-08
-1.3894034e-08
-1.7847409e-08
-2.457199e-08
-2.7181717e-08
-1.990755e-08
-1.2916408e-09
2.2251039e-08
4.1817338e-08
4.8274962e-08
3.7386214e-08
1.604094e-08
-6.0465945e-09
-8.7568958e-09
-1.1375369e-08
-1.1629122e-08
-1.1491595e-08
-1.3260084e-08
-1.5216843e-08
-1.420824e-08
-8.9605955e-09
1.1231805e-09
1.3302179e-08
2.2790082e-08
2.5986974e-08
2.140854e-08
1.1046604e-08
-7.5881825e-10
-3.5913622e-09
-7.0638985e-09
-8.4085487e-09
-8.4651432e-09
-8.6088595e-09
-9.2033588e-09
-8.4817683e-09
-4.8905088e-09
1.4385127e-09
8.5584e-09
1.3354536e-08
1.4476016e-08
1.2060088e-08
7.1986362e-09
1.627253e-09
-1.897237e-09
-3.7331803e-09
-5.3651402e-09
-5.7925188e-09
-6.6442758e-09
-6.829005e-09
-5.4630515e-09
-3.0539357e-09
1.3449935e-09
5.3182547e-09
7.992435e-09
9.0574559e-09
7.8329758e-09
5.628678e-09
1.6035543e-09
-9.7847175e-10
-2.7488328e-09
-3.7257054e-09
-4.0812198e-09
-4.8616291e-09
-5.1488604e-09
-4.2093292e-09
-2.5390349e-09
1.591935e-10
3.2486814e-09
5.6041755e-09
6.2466247e-09
5.755234e-09
4.9366952e-09
2.342479e-09
-8.96415e-11
-1.7090126e-09
-2.5634848e-09
-3.00974e-09
-3.5589631e-09
-4.1179323e-09
-3.6441087e-09
-2.1039934e-09
-2.3978788e-10
2.0084199e-09
4.050545e-09
4.6490494e-09
4.2984973e-09
3.764279e-09
2.2658736e-09
6.4510867e-10
-5.94197e-10
-1.657927e-09
-2.3694395e-09
-2.6326216e-09
-3.0954124e-09
-2.877057e-09
-1.4433059e-09
8.3412e-12
1.4403524e-09
2.6729175e-09
3.1657305e-09
2.9353154e-09
2.2561386e-09
1.546056e-09
9.5595305e-10
-2.68976e-11
-1.2710751e-09
-2.1311556e-09
-2.12503e-09
-2.183308e-09
-2.0651734e-09
-9.7121038e-10
2.1611652e-10
1.1869933e-09
1.7532885e-09
2.1863925e-09
2.1628834e-09
1.3371934e-09
9.750296e-10
-7.1733444e-06
-2.0322245e-05
-1.2080824e-05
8.5675842e-06
-5.7088459e-05
5.8479575e-05
4.9681447e-06
-1.2097289e-06
3.8210312e-05
5.7731232e-06
1.2499885e-05
6.8178171e-06
-1.4807802e-05
2.273054e-05
-1.0137816e-05
1.1722653e-06
1.221607e-08
-1.4166539e-06
2.3216897e-06
4.0194048e-06
-1.3806314e-06
-3.0411651e-06
-2.7086075e-06
-2.4406476e-06
9.980037e-07
2.9438081e-06
2.2167777e-06
-2.8921616e-07
-2.0039358e-06
-3.9449948e-07
2.3446025e-09
-2.3578781e-07
-2.6601166e-07
6.9807636e-07
9.731044e-07
-2.9762898e-07
-1.1205371e-06
-1.2752615e-06
-8.078147e-07
4.0099478e-07
1.1855957e-06
1.04579e-06
2.4375379e-07
-3.4472881e-07
-2.0188692e-07
-1.3707392e-07
-1.8167287e-07
-9.2651597e-08
1.8562525e-07
2.1645188e-07
-1.509964e-07
-4.73775e-07
-5.4876509e-07
-3.0368569e-07
1.7362874e-07
5.3117735e-07
5.5874106e-07
2.983142e-07
2.0350093e-08
-9.566795e-08
-9.7615345e-08
-1.1273071e-07
-6.3528152e-08
2.0598491e-08
1.5664089e-08
-1.0512059e-07
-2.2183163e-07
-2.3958166e-07
-1.1886005e-07
8.912265e-08
2.620746e-07
3.0827899e-07
2.1898223e-07
7.8445817e-08
-3.3898707e-08
-5.0914643e-08
-6.6242309e-08
-4.9445764e-08
-2.5025087e-08
-3.1131649e-08
-7.2085698e-08
-1.1101355e-07
-1.0799587e-07
-4.719197e-08
5.2233641e-08
1.3921547e-07
1.7007524e-07
1.3806745e-07
6.6044005e-08
-4.58927e-09
-2.4535605e-08
-3.7433718e-08
-3.5594999e-08
-3.0029416e-08
-3.3487698e-08
-4.77185e-08
-5.8577905e-08
-4.9832796e-08
-1.677595e-08
3.1746836e-08
7.567171e-08
9.4784472e-08
8.164667e-08
4.5209803e-08
4.92707e-09
-1.075736e-08
-2.0409475e-08
-2.3844544e-08
-2.4010611e-08
-2.5957131e-08
-3.0397016e-08
-3.1745575e-08
-2.4048575e-08
-5.4429043e-09
1.9473748e-08
4.2560081e-08
5.3487585e-08
4.6756235e-08
2.8066284e-08
6.269259e-09
-4.5416205e-09
-1.1377984e-08
-1.5330402e-08
-1.6640136e-08
-1.8075524e-08
-1.9337135e-08
-1.807085e-08
-1.2566776e-08
-1.4454498e-09
1.2337599e-08
2.4561244e-08
3.0195481e-08
2.6778699e-08
1.7672778e-08
5.8400807e-09
-1.9899895e-09
-6.9649205e-09
-9.6403355e-09
-1.1018625e-08
-1.216194e-08
-1.2683549e-08
-1.1232639e-08
-7.03567e-09
-2.70839e-10
7.983229e-09
1.4509055e-08
1.7271944e-08
1.6359549e-08
1.183223e-08
5.0425013e-09
-1.144749e-09
-4.1966085e-09
-5.9738273e-09
-7.3645456e-09
-8.1681342e-09
-8.4176204e-09
-7.3929496e-09
-4.2805155e-09
2.27142e-10
4.5267982e-09
8.2947557e-09
1.0874534e-08
1.0846525e-08
8.40117e-09
3.7680278e-09
-5.43118e-10
-2.604747e-09
-3.847707e-09
-4.9041444e-09
-5.7742044e-09
-6.159821e-09
-5.2494281e-09
-2.9575496e-09
-2.2938e-11
2.874424e-09
5.665627e-09
7.4814714e-09
7.4147593e-09
5.8373804e-09
2.7899952e-09
-2.19347e-10
-1.8086625e-09
-2.7991799e-09
-3.5620419e-09
-4.1843052e-09
-4.5922929e-09
-3.9960386e-09
-2.3589894e-09
-3.4009187e-10
2.035941e-09
4.3470939e-09
5.5548841e-09
5.4163099e-09
4.3061836e-09
2.2005365e-09
-2.518045e-10
-1.6365768e-09
-2.359024e-09
-2.7920509e-09
-3.082363e-09
-3.3616405e-09
-3.0797971e-09
-2.0066964e-09
-5.413909e-10
1.577035e-09
3.6084815e-09
4.5368268e-09
4.3788332e-09
3.3356589e-09
1.6745089e-09
-3.9810755e-10
-1.7363183e-09
-2.1687049e-09
-2.3640421e-09
-2.4319583e-09
-2.6032446e-09
-2.585917e-09
-1.879382e-09
-6.8866837e-10
1.3046422e-09
3.3394614e-09
4.214549e-09
3.8955304e-09
2.7562514e-09
1.3459089e-09
-1.0406687e-05
1.2752629e-05
2.6390436e-05
5.3487594e-06
1.6254628e-05
1.5110017e-05
-6.54297e-06
8.3368739e-05
2.8121099e-06
-1.4871294e-06
8.8499396e-06
-1.7724174e-05
4.6578363e-05
-0.00012449858
2.4457681e-05
-2.1714061e-06
-3.1091599e-06
-3.9727891e-06
-1.5847629e-07
3.2340774e-06
3.1588235e-06
-1.6989478e-06
-6.5528896e-06
-1.8696137e-06
2.8222187e-06
1.2393019e-06
-2.3253201e-06
8.3461001e-07
7.5881441e-06
3.0017199e-06
-5.7647057e-07
-1.1645411e-06
-1.2856653e-06
-1.7412343e-07
8.1939083e-07
5.9705732e-07
-7.26333e-07
-1.73138e-06
-7.3336276e-07
4.6503975e-07
4.9276502e-07
1.950023e-07
9.9007236e-07
1.9997318e-06
8.3282183e-07
-2.1611993e-07
-4.6626902e-07
-4.7436794e-07
-1.445629e-07
1.3296509e-07
3.2640051e-08
-3.391493e-07
-5.6213406e-07
-2.9768329e-07
9.2183917e-08
2.8791148e-07
4.0261365e-07
6.1358058e-07
6.7978461e-07
2.5860705e-07
-9.1517825e-08
-2.0282847e-07
-2.0568154e-07
-1.0726033e-07
-3.168109e-08
-7.3184757e-08
-1.78694e-07
-2.2084307e-07
-1.2214369e-07
4.1328515e-08
1.7863997e-07
2.8125927e-07
3.4051085e-07
2.8897116e-07
1.0312495e-07
-3.919391e-08
-9.114185e-08
-1.0051688e-07
-7.5216931e-08
-5.7547881e-08
-7.2073139e-08
-9.8656023e-08
-9.9509135e-08
-5.0545795e-08
2.947152e-08
1.0850842e-07
1.670973e-07
1.8461658e-07
1.4346232e-07
5.1245415e-08
-1.5123188e-08
-4.3957525e-08
-5.3794585e-08
-4.969563e-08
-4.6430629e-08
-5.178279e-08
-5.6805216e-08
-4.8623712e-08
-2.0132072e-08
2.1678848e-08
6.470954e-08
9.5243831e-08
9.9744358e-08
7.5240004e-08
2.9728773e-08
-4.631625e-09
-2.156925e-08
-3.042663e-08
-3.193026e-08
-3.171106e-08
-3.3349036e-08
-3.3209829e-08
-2.5833946e-08
-8.43474e-09
1.4340277e-08
3.8627575e-08
5.4757259e-08
5.4191741e-08
4.0899935e-08
1.8279594e-08
-1.1047595e-09
-1.1343356e-08
-1.7676809e-08
-1.9776069e-08
-2.0539026e-08
-2.125869e-08
-2.0302615e-08
-1.476723e-08
-3.2614768e-09
9.280814e-09
2.2718178e-08
3.1650036e-08
3.0544514e-08
2.3939606e-08
1.1896883e-08
-6.611725e-10
-6.1497798e-09
-9.5932557e-09
-1.2341856e-08
-1.405355e-08
-1.4509576e-08
-1.2709762e-08
-7.9301607e-09
-9.604425e-10
6.230905e-09
1.3144325e-08
1.832281e-08
1.8916727e-08
1.4926239e-08
7.3685517e-09
-8.6705e-12
-3.696299e-09
-5.6347512e-09
-8.1725503e-09
-9.2325699e-09
-9.2185555e-09
-7.9735901e-09
-4.4986362e-09
-7.12169e-10
3.6741265e-09
8.0367307e-09
1.1288309e-08
1.21055e-08
9.1604217e-09
4.882702e-09
-3.743475e-11
-2.1128883e-09
-3.5728592e-09
-5.2236596e-09
-6.0974501e-09
-6.416535e-09
-5.4551032e-09
-2.9627137e-09
-3.0926575e-10
2.1678806e-09
5.1667558e-09
7.7877167e-09
8.014625e-09
6.0367999e-09
3.0141317e-09
-5.123125e-10
-2.0713704e-09
-2.8643206e-09
-3.4925964e-09
-4.0426389e-09
-4.5992005e-09
-4.1472138e-09
-2.6244391e-09
-7.1550013e-10
1.6402501e-09
4.3174004e-09
6.1357455e-09
6.1190411e-09
4.6880899e-09
2.1690652e-09
-1.2829167e-09
-2.8674096e-09
-2.7453257e-09
-2.4274765e-09
-2.6978464e-09
-3.364778e-09
-3.4337e-09
-2.7512359e-09
-1.3790856e-09
1.4295146e-09
4.5453441e-09
5.8775574e-09
5.4539205e-09
3.9741052e-09
1.6693325e-09
-1.6684242e-09
-3.345169e-09
-2.5325666e-09
-1.8085034e-09
-2.0531139e-09
-2.8551784e-09
-3.2503992e-09
-2.8894722e-09
-1.7046392e-09
1.4148751e-09
5.0399389e-09
6.032731e-09
4.9790951e-09
3.2860931e-09
1.3547328e-09
-7.4311305e-06
-6.4586342e-06
-6.8331575e-06
-1.2429973e-05
4.1942721e-06
-4.7135558e-05
-1.8092523e-05
8.873508e-07
-4.0693365e-05
-7.0309155e-06
6.995479e-06
-1.1505175e-05
6.8440047e-05
-1.0703543e-05
8.871871e-06
-1.7805703e-06
-2.8387579e-06
-4.3563853e-06
-2.6607865e-06
1.0788418e-06
3.2236692e-06
1.5582834e-07
-1.7848287e-06
6.780307e-07
-2.6285913e-07
-1.9911774e-06
-3.2471662e-07
3.7771883e-06
5.7559738e-06
1.3108262e-06
-7.3259145e-07
-1.3126058e-06
-1.6607863e-06
-9.7186174e-07
1.5918767e-07
5.9697047e-07
-6.408016e-08
-5.1212238e-07
-1.5829505e-07
-2.8869815e-07
-4.0850655e-07
5.6486661e-07
2.0628658e-06
2.2054083e-06
5.2024383e-07
-2.8292165e-07
-5.6507505e-07
-6.574116e-07
-4.2470005e-07
-8.8605845e-08
2.17893e-08
-1.2488395e-07
-2.2764402e-07
-1.5989021e-07
-1.1588119e-07
2.4287709e-08
4.8041824e-07
9.7185734e-07
8.9462246e-07
2.540385e-07
-1.0109623e-07
-2.398989e-07
-2.7888856e-07
-2.0935605e-07
-1.115011e-07
-8.0684095e-08
-1.1086415e-07
-1.2417911e-07
-8.8658338e-08
-2.5166455e-08
9.414544e-08
2.941135e-07
4.5457841e-07
3.9114129e-07
1.3631431e-07
-3.3874042e-08
-1.0354337e-07
-1.2716081e-07
-1.0965798e-07
-8.4386478e-08
-7.7557251e-08
-7.8363075e-08
-6.9492025e-08
-4.2046935e-08
4.945355e-09
7.586021e-08
1.6504747e-07
2.1871367e-07
1.8454206e-07
7.697316e-08
-8.250415e-09
-4.5030363e-08
-6.1477139e-08
-6.0848015e-08
-5.6110926e-08
-5.4035223e-08
-5.0089335e-08
-4.0327165e-08
-2.0315598e-08
1.1588478e-08
5.050992e-08
8.968965e-08
1.0926663e-07
9.1460765e-08
4.396875e-08
1.325e-12
-2.0187275e-08
-3.1513534e-08
-3.4330524e-08
-3.4929346e-08
-3.4277724e-08
-3.0634945e-08
-2.3933786e-08
-1.094834e-08
1.0305577e-08
3.2174373e-08
4.8884703e-08
5.6244774e-08
4.7515838e-08
2.562888e-08
1.9283297e-09
-9.7541203e-09
-1.6905214e-08
-1.960229e-08
-2.1024351e-08
-2.1143455e-08
-1.893651e-08
-1.4223639e-08
-5.9212018e-09
7.1949117e-09
1.972436e-08
2.7254539e-08
3.0114704e-08
2.5898445e-08
1.539549e-08
1.5695225e-09
-4.7249645e-09
-8.8448505e-09
-1.1860551e-08
-1.325155e-08
-1.3333486e-08
-1.1516656e-08
-7.3513603e-09
-2.279944e-09
3.264579e-09
1.030661e-08
1.630161e-08
1.7791011e-08
1.4932956e-08
8.9970755e-09
9.433085e-10
-2.3407178e-09
-4.6986658e-09
-7.2845146e-09
-8.8774243e-09
-9.1240113e-09
-7.6346054e-09
-4.6163064e-09
-1.3383385e-09
3.532791e-09
7.0313362e-09
9.1280506e-09
1.0832449e-08
9.1160287e-09
5.3306202e-09
6.4357975e-10
-1.6045369e-09
-3.1839502e-09
-4.6666221e-09
-5.6122895e-09
-5.7763791e-09
-4.7372109e-09
-2.9499289e-09
-1.1416509e-09
2.0774594e-09
4.7157691e-09
6.0447878e-09
6.8949312e-09
5.7985413e-09
3.4974957e-09
-1.0843525e-10
-1.8690779e-09
-2.6747832e-09
-3.15443e-09
-3.5315465e-09
-3.824909e-09
-3.3776985e-09
-2.3065796e-09
-1.0816558e-09
9.9504097e-10
3.5198221e-09
5.067023e-09
5.3282413e-09
4.5049911e-09
2.5139978e-09
-1.0078205e-09
-2.4265301e-09
-2.4873863e-09
-2.2195655e-09
-2.2870696e-09
-2.6953242e-09
-2.7461148e-09
-2.2421645e-09
-1.2117725e-09
2.7102303e-10
3.148727e-09
5.2039785e-09
4.8734102e-09
3.990849e-09
1.8357602e-09
-1.5362263e-09
-2.6574192e-09
-2.1959965e-09
-1.6488368e-09
-1.6835991e-09
-2.2544669e-09
-2.6298281e-09
-2.3147077e-09
-1.1667193e-09
-7.0604075e-11
3.0312685e-09
5.496274e-09
4.663536e-09
3.5962881e-09
1.3710372e-09
1.7091452e-06
-1.8087228e-05
4.9133874e-05
-1.6643515e-05
-1.4798856e-06
-8.3109623e-06
1.3053161e-06
-8.2887648e-05
7.7136407e-07
-1.6923535e-05
-3.0407592e-05
5.6583754e-06
-0.00015498591
2.4368343e-05
-2.8714297e-05
-2.0142895e-06
-1.4565488e-06
-4.2661873e-06
-2.5873201e-06
-2.5052693e-07
-1.3003227e-06
1.0346895e-06
4.6536488e-06
7.5356818e-07
-4.7431365e-06
-6.020619e-06
3.3223947e-06
1.3339854e-05
4.3795909e-06
-4.913605e-06
-9.5287472e-07
-9.128668e-07
-1.3914074e-06
-1.066489e-06
-4.7228606e-07
-3.7553448e-07
2.163706e-07
9.0001322e-07
5.86813e-08
-1.2634165e-06
-1.2531008e-06
1.383089e-06
3.8874581e-06
1.9936103e-06
-7.5126405e-07
-3.3830254e-07
-4.3804917e-07
-5.4164983e-07
-4.6703292e-07
-3.0652076e-07
-2.1220899e-07
-3.2703345e-08
1.2369531e-07
-6.0738737e-08
-3.4139371e-07
-1.9889915e-07
6.208893e-07
1.318199e-06
8.7089115e-07
3.824325e-09
-1.0034455e-07
-1.879198e-07
-2.3252977e-07
-2.2142078e-07
-1.7846382e-07
-1.3402593e-07
-7.2657595e-08
-2.6003803e-08
-5.4375792e-08
-8.9846775e-08
1.4116548e-08
2.9416334e-07
5.0857504e-07
3.8835699e-07
9.2376712e-08
-2.1312167e-08
-7.8816145e-08
-1.0629638e-07
-1.0946224e-07
-9.9205411e-08
-8.3500445e-08
-6.0634647e-08
-3.9530525e-08
-3.3288025e-08
-2.0256573e-08
3.9695512e-08
1.4485985e-07
2.161298e-07
1.7891459e-07
7.2702813e-08
9.46955e-10
-3.1655495e-08
-4.9914061e-08
-5.6518442e-08
-5.5988406e-08
-5.0062214e-08
-4.0263708e-08
-2.9523569e-08
-1.9195667e-08
-2.0601395e-09
3.0130523e-08
7.2531481e-08
9.9358147e-08
8.6787009e-08
4.5427581e-08
4.5309802e-09
-1.3305775e-08
-2.3855263e-08
-2.9224788e-08
-3.1701751e-08
-3.0392465e-08
-2.5153784e-08
-1.8290976e-08
-1.05177e-08
2.4204195e-09
1.8442171e-08
3.6026475e-08
4.8851494e-08
4.494312e-08
2.7227839e-08
4.0215535e-09
-5.5995435e-09
-1.1490045e-08
-1.5456165e-08
-1.8186995e-08
-1.843305e-08
-1.5034801e-08
-1.0307416e-08
-5.955683e-09
2.4868445e-09
1.0979202e-08
1.836661e-08
2.49782e-08
2.3818535e-08
1.5812755e-08
3.7919357e-09
-1.8711375e-09
-6.2622837e-09
-8.7743755e-09
-1.0572325e-08
-1.0469714e-08
-8.4956395e-09
-6.1799459e-09
-3.399678e-09
8.3742725e-10
6.3360045e-09
1.0823771e-08
1.3045993e-08
1.2263161e-08
8.926809e-09
2.508523e-09
-6.68435e-10
-3.6548795e-09
-5.3683067e-09
-5.99896e-09
-6.2710191e-09
-5.8367097e-09
-4.2524535e-09
-1.8454278e-09
1.406638e-09
4.2075339e-09
6.0953748e-09
7.1497201e-09
7.1467145e-09
5.381689e-09
1.5173712e-09
-8.691733e-10
-2.7521971e-09
-3.6994666e-09
-4.0482091e-09
-3.7576797e-09
-3.2313209e-09
-2.6195934e-09
-1.4762396e-09
1.0359099e-09
3.0700316e-09
3.7779743e-09
4.4716019e-09
4.781359e-09
3.7996289e-09
7.97918e-10
-1.1561284e-09
-2.257908e-09
-2.8591384e-09
-2.8967836e-09
-2.3045295e-09
-1.8109246e-09
-1.5537154e-09
-1.1101243e-09
2.6564993e-10
1.9842859e-09
2.7747845e-09
3.2440979e-09
3.8031801e-09
3.079336e-09
6.550836e-10
-7.6901553e-10
-1.7063883e-09
-2.3629155e-09
-2.2883121e-09
-1.5795434e-09
-1.075095e-09
-8.6421704e-10
-6.167891e-10
-3.6292255e-10
7.4898703e-10
1.9004242e-09
2.4698793e-09
3.2597593e-09
2.5910651e-09
7.6586032e-10
-1.7164498e-10
-1.3198219e-09
-2.1649659e-09
-1.9888096e-09
-1.162246e-09
-6.3987089e-10
-3.8863438e-10
-4.6910318e-11
-7.2137948e-10
-4.9858849e-10
1.0653219e-09
2.0382523e-09
2.9952655e-09
2.238172e-09
-1.123027e-05
3.5104325e-06
-2.8611178e-06
2.2595771e-05
-1.5976288e-06
-1.6422332e-06
5.622014e-06
-2.8741452e-06
7.2968315e-07
-3.5290031e-06
-2.4474731e-05
1.2979289e-05
-3.3297659e-05
2.2113101e-06
2.8619798e-05
-2.9857322e-06
1.5996711e-06
1.0761667e-06
-1.4751729e-06
-2.3721363e-06
-2.6840317e-06
-1.8592374e-07
3.1707565e-06
7.0465563e-07
-3.1281915e-06
-3.7768308e-06
2.8689407e-06
1.0331746e-05
2.8938906e-06
-6.0391381e-06
-9.7425256e-07
7.338005e-08
1.2580332e-07
-5.1749576e-07
-1.0015717e-06
-1.079959e-06
-1.5915194e-07
8.374558e-07
1.8017748e-07
-1.0160422e-06
-1.015612e-06
1.1521965e-06
3.1753975e-06
1.3786462e-06
-1.1589721e-06
-2.602234e-07
-7.8059495e-08
-6.3098805e-08
-2.4793708e-07
-4.2706534e-07
-4.3298304e-07
-1.2083261e-07
1.8172585e-07
1.352081e-08
-3.2560311e-07
-2.5685781e-07
4.4818915e-07
1.0527117e-06
6.320426e-07
-1.1552943e-07
-4.3988105e-08
-4.5886795e-08
-6.376279e-08
-1.2848641e-07
-1.8889971e-07
-1.8154907e-07
-7.7980055e-08
1.5669765e-08
-2.3288135e-08
-1.0958946e-07
-5.9225535e-08
1.8039185e-07
3.7922529e-07
2.8673104e-07
6.0638153e-08
8.4232975e-09
-1.41236e-08
-3.6518825e-08
-6.5735371e-08
-8.8506567e-08
-8.1803999e-08
-4.662688e-08
-1.801314e-08
-2.353914e-08
-4.0271704e-08
-1.017962e-08
7.662144e-08
1.4787409e-07
1.3212349e-07
6.0276572e-08
1.5222493e-08
-2.64277e-09
-1.8136315e-08
-3.3035248e-08
-4.1857751e-08
-3.880218e-08
-2.7335517e-08
-1.761048e-08
-1.667621e-08
-1.7555954e-08
-7.314295e-10
3.3748624e-08
6.2349506e-08
6.3098795e-08
3.9964436e-08
1.138483e-08
6.969135e-10
-8.0004117e-09
-1.61716e-08
-2.0388555e-08
-2.01076e-08
-1.6421815e-08
-1.133174e-08
-9.1384753e-09
-8.9808315e-09
-1.1962685e-09
1.5172791e-08
2.8897814e-08
3.1863159e-08
2.3721787e-08
7.0327308e-09
1.683169e-09
-2.9031595e-09
-7.8287883e-09
-1.0681494e-08
-1.1148465e-08
-9.3875924e-09
-6.4269503e-09
-4.8965857e-09
-4.896113e-09
-1.4269432e-09
6.9115102e-09
1.4190966e-08
1.6589707e-08
1.3188004e-08
4.675302e-09
2.061914e-09
-1.2956647e-09
-3.58846e-09
-6.0032933e-09
-6.4208193e-09
-5.0813389e-09
-4.6056307e-09
-3.5553311e-09
-1.7539963e-09
3.565605e-10
3.1803268e-09
6.4749035e-09
8.413061e-09
7.1424635e-09
3.539337e-09
8.7667557e-10
-1.28093e-09
-2.5722912e-09
-2.1136498e-09
-2.2508836e-09
-3.1627502e-09
-2.9477656e-09
-2.339453e-09
-1.8820399e-09
3.7192775e-11
2.1861995e-09
2.9325419e-09
4.1269962e-09
4.8508165e-09
1.8559315e-09
2.4380173e-10
-1.0943987e-09
-1.7279115e-09
-1.4850193e-09
-1.3326114e-09
-1.7678592e-09
-1.8870486e-09
-1.3775434e-09
-1.0355724e-09
1.7651935e-10
1.510603e-09
1.9478344e-09
2.9190955e-09
3.0541814e-09
1.1183331e-09
-9.5176e-11
-8.5257745e-10
-1.3094937e-09
-1.2502575e-09
-8.1470818e-10
-8.1062299e-10
-1.086945e-09
-1.0081746e-09
-6.2382372e-10
1.181951e-10
7.1204996e-10
1.2568895e-09
2.273055e-09
2.3732569e-09
1.3869482e-09
3.6235245e-10
-4.5506502e-10
-1.1547501e-09
-1.202912e-09
-5.332284e-10
-1.2910048e-10
-2.9925261e-10
-6.1377201e-10
-4.3451101e-10
-5.102951e-10
-6.006213e-10
3.9968671e-10
1.6431215e-09
2.1413989e-09
1.8940093e-09
9.629196e-10
-2.719465e-10
-1.2463011e-09
-1.2240536e-09
-2.2290792e-10
4.8487693e-10
3.3279153e-10
-2.4914094e-10
-3.1141008e-10
-1.2982466e-09
-1.86755e-09
-2.6545301e-10
1.2396289e-09
2.0427844e-09
-1.2041203e-05
8.0162731e-06
-7.4264897e-05
1.859198e-05
-2.3033955e-05
-4.530764e-06
-1.2844272e-07
1.014244e-05
6.4109933e-07
6.9882774e-07
9.3420995e-07
-3.6610075e-07
5.1780035e-06
-5.4354384e-06
8.0937479e-06
-3.2098576e-06
1.9430322e-06
6.1772e-06
2.1834862e-06
-3.5143646e-06
-5.5628586e-06
-1.8755249e-06
2.4032651e-06
1.5378413e-06
-1.207834e-06
-2.4373232e-06
3.9419958e-07
3.8852659e-06
1.7366856e-06
-2.4700667e-06
-5.6482249e-07
6.7579149e-07
1.5815265e-06
5.6751147e-07
-1.146545e-06
-1.8218479e-06
-6.1138405e-07
7.4363184e-07
4.7558799e-07
-5.3867876e-07
-9.4320197e-07
6.0276637e-08
1.2298862e-06
7.2613147e-07
-4.3386766e-07
-1.162016e-08
2.6643893e-07
4.2841363e-07
1.1468418e-07
-3.9185748e-07
-5.7081865e-07
-1.9201349e-07
2.1650905e-07
1.2216629e-07
-2.464602e-07
-3.9010339e-07
-5.0158102e-08
3.6777866e-07
3.122383e-07
2.480241e-08
6.9748264e-08
1.1917364e-07
1.2800386e-07
1.5968965e-08
-1.3508404e-07
-1.7665409e-07
-5.9309e-08
5.7835308e-08
1.5572933e-08
-1.1863789e-07
-1.7257659e-07
-5.8792943e-08
1.0086877e-07
1.3313571e-07
8.0747081e-08
5.4856906e-08
6.0459842e-08
4.6247174e-08
2.2923175e-09
-4.6022239e-08
-5.5639102e-08
-1.8846895e-08
1.1904235e-08
-7.2264092e-09
-6.0479312e-08
-8.3312562e-08
-4.1325164e-08
2.3762608e-08
5.7137895e-08
5.6190715e-08
3.4302999e-08
3.1503691e-08
2.0596121e-08
2.3482958e-09
-1.4036864e-08
-1.6619634e-08
-6.2367345e-09
-1.7084e-10
-1.1323127e-08
-3.2348872e-08
-4.1341465e-08
-2.5751145e-08
2.819706e-09
2.3855854e-08
3.2402011e-08
1.9796971e-08
1.7142136e-08
1.1133099e-08
3.05675e-09
-3.2317487e-09
-4.6601212e-09
-2.6374675e-09
-2.4914962e-09
-8.4595851e-09
-1.7876167e-08
-2.1607614e-08
-1.4866965e-08
-1.8937248e-09
9.5272092e-09
1.706873e-08
1.071546e-08
9.644629e-09
6.740519e-09
2.7474933e-09
2.006895e-10
-9.1705025e-10
-1.5380538e-09
-2.4138395e-09
-5.4590021e-09
-1.0173131e-08
-1.193655e-08
-8.4021999e-09
-2.0589052e-09
4.104695e-09
8.7452465e-09
5.369009e-09
5.7921266e-09
4.1755847e-09
2.5489301e-09
9.3510112e-10
-2.6075525e-10
-8.6352315e-10
-1.9892245e-09
-3.5778579e-09
-5.4390675e-09
-6.5178947e-09
-5.2083313e-09
-1.6180585e-09
2.3748449e-09
4.2791113e-09
3.453758e-09
2.7550086e-09
2.3020976e-09
1.7125749e-09
1.4884455e-09
8.5379033e-10
-3.3244435e-10
-1.46734e-09
-2.5116189e-09
-3.460899e-09
-3.86562e-09
-3.2204147e-09
-1.4388745e-09
7.9778015e-10
2.9337548e-09
1.9060595e-09
1.6698595e-09
1.5138546e-09
1.2988559e-09
1.3567592e-09
8.416054e-10
-2.5983153e-10
-1.0080154e-09
-1.3924061e-09
-2.0647124e-09
-2.3406239e-09
-1.8006075e-09
-1.003946e-09
8.3075e-12
1.2748424e-09
1.2228335e-09
1.3400807e-09
1.2161203e-09
1.1617649e-09
1.0699046e-09
6.2010793e-10
-2.5544425e-11
-4.454446e-10
-6.6198725e-10
-1.2927824e-09
-1.7862029e-09
-1.5252082e-09
-9.8990508e-10
-3.7312562e-10
4.6938903e-10
1.074215e-09
1.2677065e-09
9.7681594e-10
9.4700766e-10
7.9587911e-10
6.4111442e-10
5.1990213e-10
1.2548492e-10
-4.779054e-10
-1.1324688e-09
-1.7487821e-09
-1.7757022e-09
-1.1031094e-09
-4.0708745e-10
2.9692947e-10
9.530897e-10
1.0825858e-09
7.2888652e-10
7.9248592e-10
6.8397096e-10
8.596199e-10
1.0307479e-09
3.3581985e-10
-7.299139e-10
-1.1731689e-09
-1.6668484e-09
-1.90356e-09
-1.0368634e-09
-2.619675e-10
3.0511552e-10
2.0780797e-05
-4.0751938e-06
1.350822e-05
-3.853244e-06
-1.2795462e-05
0.00012251449
-1.4288562e-05
2.2783049e-05
3.6914699e-06
-8.67869e-07
-1.1157544e-05
2.7757393e-06
-8.679832e-06
8.7234344e-06
-4.2945323e-05
1.3811967e-07
2.9881338e-07
4.2880205e-06
5.3694518e-06
-2.2726003e-06
-8.84481e-06
-1.6797069e-06
4.1303485e-06
2.2987109e-06
-1.3820285e-07
-2.465097e-06
-2.698204e-06
-1.8751498e-06
7.2078138e-07
2.7535244e-06
5.6766241e-07
7.5728171e-07
1.4888974e-06
1.1962943e-06
-7.2138017e-07
-1.9589185e-06
-3.6480562e-07
1.1419692e-06
8.0676782e-07
-2.9870016e-07
-1.3306859e-06
-1.4195221e-06
-8.3766246e-07
1.336414e-07
8.391666e-07
3.9135839e-07
4.6568506e-07
5.4601241e-07
3.2142919e-07
-1.8734903e-07
-4.1578899e-07
-5.9186375e-09
3.8401405e-07
2.520423e-07
-2.2573477e-07
-6.6996206e-07
-7.2602566e-07
-4.4196295e-07
-1.021645e-08
3.2241713e-07
2.1264107e-07
2.4029488e-07
2.2268166e-07
1.1824908e-07
-2.5423978e-08
-6.275426e-08
5.4350838e-08
1.4647834e-07
6.7394893e-08
-1.4090298e-07
-3.3144726e-07
-3.6547253e-07
-2.3733574e-07
-3.4490703e-08
1.3573665e-07
1.0583468e-07
1.192316e-07
1.0227356e-07
5.7454416e-08
1.6238948e-08
1.1494407e-08
4.2281875e-08
5.874621e-08
1.3801325e-08
-8.1470216e-08
-1.6561586e-07
-1.8188991e-07
-1.2529931e-07
-3.0256085e-08
5.717436e-08
5.1547985e-08
5.8746239e-08
5.0907126e-08
3.431036e-08
2.1192555e-08
2.046154e-08
2.6809669e-08
2.391348e-08
-2.113545e-09
-4.6017502e-08
-8.3702972e-08
-9.1248785e-08
-6.5665976e-08
-2.2013985e-08
2.2873815e-08
2.5402644e-08
2.8814101e-08
2.7204331e-08
2.1712589e-08
1.7059741e-08
1.5651505e-08
1.480041e-08
9.4761802e-09
-4.8530757e-09
-2.5451384e-08
-4.2548907e-08
-4.6646755e-08
-3.5527484e-08
-1.4828975e-08
9.7350797e-09
1.2734139e-08
1.472975e-08
1.5204385e-08
1.3303994e-08
1.2314256e-08
1.0008309e-08
6.9616715e-09
3.7392492e-09
-3.808023e-09
-1.4355683e-08
-2.2748931e-08
-2.431583e-08
-1.8930811e-08
-9.0323045e-09
4.1958297e-09
6.0967575e-09
8.5429995e-09
9.075636e-09
7.8602302e-09
7.7129645e-09
6.7482358e-09
3.9344238e-09
1.3053045e-09
-2.6541765e-09
-8.1447223e-09
-1.2551061e-08
-1.3006745e-08
-1.0045638e-08
-5.5091817e-09
6.3497175e-10
2.837602e-09
4.5410142e-09
5.4605266e-09
6.0803002e-09
5.0779043e-09
4.1719253e-09
3.2600721e-09
7.574e-10
-2.067191e-09
-4.870712e-09
-7.097088e-09
-7.7310105e-09
-6.2787768e-09
-3.7850612e-09
-3.5690475e-10
1.9067344e-09
2.9912913e-09
3.6048427e-09
4.0121989e-09
4.1594102e-09
3.2056309e-09
1.6050821e-09
4.2191597e-10
-7.31768e-10
-2.8065256e-09
-4.6015698e-09
-4.7881259e-09
-4.3509641e-09
-3.6250809e-09
-1.003075e-09
1.1384157e-09
2.3660392e-09
2.770248e-09
3.145304e-09
3.2385397e-09
2.256558e-09
1.075741e-09
5.8080105e-10
-5.7417975e-11
-1.7555782e-09
-3.3581661e-09
-3.5372615e-09
-3.3722055e-09
-3.093873e-09
-1.397145e-09
2.8679848e-10
1.5675369e-09
2.0571168e-09
2.697785e-09
2.5048236e-09
1.8996988e-09
1.487236e-09
6.4804808e-10
-5.7408552e-10
-1.7138043e-09
-2.4253065e-09
-2.6225781e-09
-2.4578952e-09
-2.0459582e-09
-1.3094153e-09
-5.1905877e-10
8.0553981e-10
1.6460169e-09
2.6618971e-09
2.1242072e-09
1.7362438e-09
1.8596956e-09
4.4599253e-10
-1.379831e-09
-1.8801083e-09
-1.5590954e-09
-1.7775095e-09
-1.712688e-09
-1.2288664e-09
-1.2224364e-09
6.5240272e-06
-5.1577648e-06
6.0873918e-06
-1.0842072e-05
9.0882961e-06
-2.3817627e-06
1.0380461e-05
-2.8443251e-06
9.2292096e-06