/*--------------------------------*- C++ -*----------------------------------*\
| =========                 |                                                 |
| \\      /  F ield         | OpenFOAM: The Open Source CFD Toolbox           |
|  \\    /   O peration     | Version:  3.0.1                                 |
|   \\  /    A nd           | Web:      www.OpenFOAM.org                      |
|    \\/     M anipulation  |                                                 |
\*---------------------------------------------------------------------------*/
FoamFile
{
    version     2.0;
    format      ascii;
    class       volScalarField;
    location    "0.1";
    object      sigmayy;
}
// * * * * * * * * * * * * * * * * * * * * * * * * * * * * * * * * * * * * * //

dimensions      [0 2 -2 0 0 0 0];

internalField   nonuniform List<scalar> 
3375
(
8.6074219e-06
2.2824797e-06
-1.1527606e-05
-2.0131872e-06
8.9106079e-06
-6.0895783e-06
-1.2580891e-05
-4.6999749e-07
7.7589557e-06
-6.1919499e-06
-7.743804e-06
-0.00010261117
3.9865727e-06
0.00011138861
6.2756969e-06
1.5349592e-06
8.3760553e-07
5.868847e-07
2.0015639e-06
8.7538243e-07
-6.2728673e-07
4.2625464e-07
-1.0042491e-06
-2.5552424e-06
-1.1666268e-06
3.2174417e-06
1.1982326e-05
-1.1665926e-06
-1.3038667e-05
-1.9230381e-06
-9.8937649e-07
2.5387693e-07
1.6602308e-06
1.878547e-06
-5.0566274e-07
-1.0911837e-06
2.1861282e-07
-5.3553947e-07
-1.025314e-06
1.6074776e-06
5.9203126e-06
1.43343e-05
-9.5710291e-07
-1.5667319e-05
-5.1199994e-06
-1.4953132e-06
-1.6851134e-07
7.2273e-07
6.0873825e-07
-4.8762622e-07
-8.6205515e-07
-3.8054985e-07
-1.4869273e-08
5.7355105e-07
1.978042e-06
3.6950226e-06
4.5720397e-06
-2.7681633e-07
-4.982874e-06
-3.4927581e-06
-1.2166332e-06
-4.112771e-07
1.0801586e-07
8.8384729e-08
-2.9780607e-07
-4.181529e-07
-1.6399522e-07
2.3408463e-07
7.788275e-07
1.5087918e-06
2.0925529e-06
1.8372481e-06
-1.1728561e-07
-2.0035634e-06
-2.0155655e-06
-8.451599e-07
-4.3763641e-07
-1.4333068e-07
-8.5807621e-08
-1.6974328e-07
-1.6238446e-07
1.1148816e-08
2.94184e-07
6.4717342e-07
1.0028914e-06
1.1645253e-06
8.4791243e-07
-5.9725355e-08
-9.2738756e-07
-1.1281339e-06
-5.5336356e-07
-3.6490937e-07
-2.0066766e-07
-1.241074e-07
-1.0049967e-07
-4.5233279e-08
8.1704968e-08
2.6491231e-07
4.6862496e-07
6.3213162e-07
6.5251216e-07
4.2500393e-07
-3.1874817e-08
-4.6721612e-07
-6.3581525e-07
-3.5450329e-07
-2.7179998e-07
-1.7977486e-07
-1.1271957e-07
-6.2821418e-08
6.1106217e-10
9.2556336e-08
2.0718956e-07
3.1992112e-07
3.9113558e-07
3.7131184e-07
2.257605e-07
-1.7171722e-08
-2.4871602e-07
-3.648288e-07
-2.2552521e-07
-1.9141001e-07
-1.3974961e-07
-8.9097005e-08
-4.0790774e-08
1.4418311e-08
7.9960007e-08
1.5159836e-07
2.1324561e-07
2.4241797e-07
2.1666306e-07
1.2607215e-07
-9.1353573e-09
-1.3855558e-07
-2.1504371e-07
-1.4546189e-07
-1.317083e-07
-1.0178353e-07
-6.571498e-08
-2.7269684e-08
1.5392273e-08
6.1548115e-08
1.0689663e-07
1.4091907e-07
1.5216718e-07
1.3047046e-07
7.414522e-08
-4.2391311e-09
-8.0015508e-08
-1.3096405e-07
-9.445008e-08
-8.9365499e-08
-7.1925087e-08
-4.7238903e-08
-1.8825216e-08
1.2965376e-08
4.5006798e-08
7.3493966e-08
9.2703515e-08
9.6256095e-08
8.0137558e-08
4.4882431e-08
-1.7710594e-09
-4.8020962e-08
-8.1564575e-08
-6.1876974e-08
-6.0656953e-08
-5.0108562e-08
-3.3214753e-08
-1.256736e-08
9.655017e-09
3.1718974e-08
4.9904655e-08
6.0882103e-08
6.1050472e-08
4.9666584e-08
2.7313675e-08
-1.1124532e-09
-2.9563717e-08
-5.1190934e-08
-4.2145045e-08
-4.2832112e-08
-3.6283995e-08
-2.4312259e-08
-8.9848983e-09
7.4295563e-09
2.2857415e-08
3.5058041e-08
4.1646979e-08
4.0611062e-08
3.2014565e-08
1.7455067e-08
-9.989494e-10
-1.9556287e-08
-3.4162929e-08
-3.3239936e-08
-3.4092588e-08
-2.9132293e-08
-1.9423929e-08
-7.0440755e-09
5.9636875e-09
1.7883131e-08
2.7117516e-08
3.1617908e-08
3.0515534e-08
2.3711181e-08
1.2602377e-08
-1.1674568e-09
-1.5019833e-08
-2.6586838e-08
-3.0527875e-08
-3.1186398e-08
-2.6735682e-08
-1.7732646e-08
-6.4566701e-09
5.2318946e-09
1.6025496e-08
2.4210607e-08
2.7909465e-08
2.6810578e-08
2.0710219e-08
1.0621958e-08
-1.4843561e-09
-1.3698582e-08
-2.4275252e-08
-1.13986e-05
9.9527863e-06
1.7069179e-05
-4.094251e-05
8.4857067e-07
4.2315271e-05
1.6544654e-06
2.9182547e-06
-3.7394147e-06
-2.5185586e-06
-2.6402154e-06
-1.0091111e-05
4.2691934e-06
7.2005792e-06
-1.4918589e-05
6.9492533e-07
-1.1667333e-06
-4.3876219e-07
6.5659134e-06
5.8113683e-07
-6.0326498e-06
-1.8388479e-06
-1.040651e-06
-6.1994087e-07
-6.9995562e-07
2.6689395e-06
8.8470685e-06
2.7554048e-06
-6.7568496e-06
-3.5334578e-06
-1.1579056e-06
-1.7156486e-06
-4.3232761e-07
5.8983543e-06
2.45377e-07
-5.7160644e-06
-1.8666176e-06
-9.1497613e-07
2.1445268e-07
1.2672519e-06
4.8141697e-06
1.0204207e-05
2.7310351e-06
-8.1674807e-06
-5.4140719e-06
-2.0122754e-06
-9.500825e-07
9.5021609e-08
1.3005364e-06
5.3228908e-08
-1.3120954e-06
-7.436149e-07
-1.9477819e-07
5.4234268e-07
1.6244794e-06
3.3925415e-06
4.6412889e-06
1.1482561e-06
-3.7318279e-06
-3.8596005e-06
-1.4596494e-06
-7.2850542e-07
-1.2319841e-07
2.273969e-07
-4.1631733e-08
-3.4969532e-07
-1.9583146e-07
1.3705733e-07
6.2706679e-07
1.2855574e-06
1.9841708e-06
2.0360052e-06
3.9568022e-07
-1.6706357e-06
-2.1186965e-06
-9.2459982e-07
-5.5516493e-07
-2.2859131e-07
-5.2740396e-08
-6.7157501e-08
-9.4025115e-08
1.7680091e-08
2.3756886e-07
5.4094864e-07
8.8035209e-07
1.1103305e-06
9.3404106e-07
1.3092364e-07
-7.9183102e-07
-1.1267754e-06
-5.69939e-07
-4.0269306e-07
-2.2918888e-07
-1.1425114e-07
-6.2850948e-08
-1.4984044e-08
8.2529495e-08
2.3044535e-07
4.0760098e-07
5.6786902e-07
6.2265403e-07
4.5656063e-07
4.3841435e-08
-4.0105514e-07
-6.1346434e-07
-3.516393e-07
-2.8067564e-07
-1.8807568e-07
-1.094599e-07
-5.0212201e-08
1.0437213e-08
8.8827232e-08
1.8614913e-07
2.865297e-07
3.5857088e-07
3.5573464e-07
2.37352e-07
1.4915197e-08
-2.1516477e-07
-3.4538237e-07
-2.1925367e-07
-1.908646e-07
-1.4052369e-07
-8.7166885e-08
-3.6604913e-08
1.6110819e-08
7.520754e-08
1.3872087e-07
1.9525698e-07
2.2594895e-07
2.0850797e-07
1.3057179e-07
5.6559796e-09
-1.207793e-07
-2.011579e-07
-1.3948654e-07
-1.2881205e-07
-1.0043333e-07
-6.4507013e-08
-2.5995182e-08
1.4817488e-08
5.7678065e-08
9.8924441e-08
1.3081273e-07
1.4334666e-07
1.2601141e-07
7.5741065e-08
2.6867485e-09
-7.0588213e-08
-1.2170522e-07
-9.0325266e-08
-8.6775034e-08
-7.0434387e-08
-4.6370553e-08
-1.8412429e-08
1.1965643e-08
4.2052433e-08
6.8734604e-08
8.7062606e-08
9.1359121e-08
7.7782095e-08
4.5554212e-08
1.6205902e-09
-4.2943161e-08
-7.6265203e-08
-5.9228866e-08
-5.874759e-08
-4.9126046e-08
-3.2917811e-08
-1.2812026e-08
8.9942265e-09
2.9889245e-08
4.7158537e-08
5.7738047e-08
5.8720862e-08
4.8772566e-08
2.8125394e-08
7.3035417e-10
-2.708382e-08
-4.8490978e-08
-4.073925e-08
-4.1366984e-08
-3.5355714e-08
-2.3962271e-08
-9.1085013e-09
6.6681933e-09
2.1473788e-08
3.3266991e-08
3.9889788e-08
3.9689002e-08
3.1845361e-08
1.817736e-08
1.3631623e-10
-1.8226223e-08
-3.2675604e-08
-3.181916e-08
-3.2471767e-08
-2.7883688e-08
-1.8809025e-08
-6.9369407e-09
5.4598296e-09
1.6852392e-08
2.5727078e-08
3.0368152e-08
2.9751762e-08
2.3518377e-08
1.2874773e-08
-5.3524295e-10
-1.4158381e-08
-2.536817e-08
-2.8882232e-08
-2.9232449e-08
-2.5039221e-08
-1.6733835e-08
-5.9889528e-09
5.02894e-09
1.5109673e-08
2.2792252e-08
2.6580119e-08
2.5789154e-08
2.0172456e-08
1.0536395e-08
-1.0624759e-09
-1.2878246e-08
-2.3028724e-08
6.5483046e-06
6.2285706e-06
-2.5689661e-06
-3.4694771e-06
5.5049494e-06
5.108385e-08
-5.2204203e-06
4.785046e-06
-9.7973651e-06
-9.9134127e-06
-2.6898799e-06
-0.00011375861
-9.1087992e-05
0.00011616191
9.921275e-05
-3.0584876e-06
4.1415635e-07
1.4950588e-06
3.3202454e-06
1.6549912e-06
-1.2694355e-06
-2.6226932e-06
-1.186702e-06
5.105542e-07
-1.7925541e-06
2.4950417e-06
1.8277527e-05
1.4403414e-05
-1.4419465e-05
-1.8230025e-05
-5.1797193e-06
-1.2529348e-06
8.4220967e-07
2.8027363e-06
1.3823432e-06
-9.8964682e-07
-1.6857368e-06
-8.6712323e-07
8.4055773e-07
7.2434972e-07
5.443659e-06
2.0099922e-05
1.3341602e-05
-1.6391637e-05
-1.9121378e-05
-3.157319e-06
-1.1672131e-06
5.6893608e-08
9.1309917e-07
6.1459658e-07
-2.4750896e-07
-5.1139158e-07
-1.7652609e-07
4.0983631e-07
1.2851528e-06
3.6012545e-06
6.4960679e-06
3.1344693e-06
-4.8616909e-06
-6.3974217e-06
-1.7648787e-06
-8.7170526e-07
-2.106021e-07
1.9396513e-07
1.8348499e-07
-3.6411975e-08
-7.5514834e-08
1.1272242e-07
4.7630448e-07
1.0928137e-06
1.9885787e-06
2.4253842e-06
8.4761976e-07
-1.7726943e-06
-2.5793232e-06
-9.9279899e-07
-6.0957827e-07
-2.6831548e-07
-4.7330588e-08
1.9239692e-08
1.1384157e-08
6.2330341e-08
2.0685077e-07
4.4435246e-07
7.7160454e-07
1.0757675e-06
1.0218474e-06
2.642854e-07
-7.5708677e-07
-1.1880253e-06
-5.7479425e-07
-4.1518625e-07
-2.399181e-07
-1.0702727e-07
-3.0816489e-08
1.9703731e-08
9.2515085e-08
2.0389166e-07
3.5078784e-07
5.0725697e-07
5.9244586e-07
4.7609706e-07
9.3533781e-08
-3.6266515e-07
-6.0104587e-07
-3.4125816e-07
-2.7790383e-07
-1.8729004e-07
-1.0397745e-07
-3.8575043e-08
1.9987961e-08
8.6445406e-08
1.6660254e-07
2.5363242e-07
3.2419946e-07
3.3662326e-07
2.4104213e-07
3.7015351e-08
-1.8886993e-07
-3.2591651e-07
-2.0864308e-07
-1.8479815e-07
-1.3680587e-07
-8.348746e-08
-3.2585597e-08
1.7189311e-08
6.9828699e-08
1.2534985e-07
1.761142e-07
2.0682501e-07
1.9708372e-07
1.3066608e-07
1.6542877e-08
-1.0474653e-07
-1.8591048e-07
-1.3148218e-07
-1.2326656e-07
-9.7095083e-08
-6.2473634e-08
-2.4886763e-08
1.3873477e-08
5.3157323e-08
9.039978e-08
1.1964747e-07
1.326276e-07
1.1926441e-07
7.5473186e-08
8.3790075e-09
-6.1441985e-08
-1.1197503e-07
-8.5231426e-08
-8.2770401e-08
-6.77e-08
-4.4796204e-08
-1.7762456e-08
1.0480749e-08
3.8560113e-08
6.3030032e-08
8.0200097e-08
8.5111311e-08
7.4111955e-08
4.524615e-08
4.6100607e-09
-3.7686054e-08
-7.0083778e-08
-5.5587384e-08
-5.5883849e-08
-4.7201354e-08
-3.1826632e-08
-1.2462895e-08
7.9434467e-09
2.7572782e-08
4.368851e-08
5.3730871e-08
5.5050674e-08
4.697717e-08
2.8069484e-08
2.4116108e-09
-2.4021736e-08
-4.4616584e-08
-3.8224964e-08
-3.925773e-08
-3.3837115e-08
-2.3085794e-08
-8.8954786e-09
5.9970196e-09
1.9981296e-08
3.1139841e-08
3.7573607e-08
3.7724295e-08
3.0788214e-08
1.817805e-08
1.1909952e-09
-1.62722e-08
-3.0074144e-08
-2.9816643e-08
-3.0581808e-08
-2.635084e-08
-1.7861883e-08
-6.6786352e-09
5.123357e-09
1.5815324e-08
2.4235742e-08
2.881653e-08
2.8469937e-08
2.276203e-08
1.2814055e-08
1.4807427e-10
-1.2810585e-08
-2.3538493e-08
-2.705541e-08
-2.728722e-08
-2.3311781e-08
-1.5609928e-08
-5.6374343e-09
4.9502617e-09
1.4296286e-08
2.155357e-08
2.5303931e-08
2.4783798e-08
1.946341e-08
1.0349364e-08
-6.1297897e-10
-1.1824132e-08
-2.1526737e-08
-3.2060712e-06
7.4822396e-06
1.7436602e-06
8.6837143e-07
-4.150718e-05
-1.1366485e-05
4.3560405e-05
-1.923347e-05
-4.8252316e-06
2.2763375e-05
-4.1621093e-07
3.1450275e-06
-1.4069925e-05
4.2101978e-06
1.0837928e-05
-1.0888908e-06
7.5306684e-07
2.6847494e-07
1.1619895e-06
6.2147669e-06
2.6409045e-06
-3.1057767e-06
5.5696416e-07
-2.7281557e-06
-5.2960398e-06
2.2481983e-06
9.9136477e-06
5.5104944e-06
-8.1586129e-06
-8.8985039e-06
-2.8239893e-06
-5.3911934e-07
5.7084817e-09
1.2227038e-06
5.9051855e-06
2.3721601e-06
-2.7838618e-06
7.4126916e-07
-2.0713584e-06
-3.1778962e-06
3.9991142e-06
1.0862219e-05
5.3098379e-06
-9.174908e-06
-9.8560988e-06
-2.4292933e-06
-8.2442093e-07
-1.2776718e-07
5.10304e-07
1.4077431e-06
7.4862045e-07
-1.3605619e-07
-7.8247567e-09
-5.1221585e-07
2.5990002e-07
3.0043034e-06
5.062555e-06
1.8141156e-06
-3.9886377e-06
-4.7867196e-06
-1.5296199e-06
-7.471959e-07
-2.5558571e-07
9.3872476e-08
3.5189144e-07
2.6095843e-07
1.1288009e-07
1.0541871e-07
1.6662056e-07
7.4938624e-07
1.7552913e-06
2.1578348e-06
6.3922083e-07
-1.6197589e-06
-2.234237e-06
-8.9714325e-07
-5.5616827e-07
-2.7194572e-07
-6.6512032e-08
6.4567219e-08
9.8717304e-08
1.180682e-07
1.7750519e-07
3.1794811e-07
6.2702519e-07
9.6958033e-07
9.534567e-07
2.4444475e-07
-6.9111404e-07
-1.0720065e-06
-5.2455475e-07
-3.8443924e-07
-2.316828e-07
-1.063374e-07
-1.5903953e-08
4.3395733e-08
1.0050398e-07
1.7626894e-07
2.8773575e-07
4.3590163e-07
5.3804148e-07
4.514297e-07
1.0230513e-07
-3.2121935e-07
-5.4342608e-07
-3.1125908e-07
-2.5703214e-07
-1.7697122e-07
-9.9137074e-08
-3.3130429e-08
2.4529915e-08
8.1657266e-08
1.4568762e-07
2.1859833e-07
2.8574774e-07
3.072126e-07
2.3009295e-07
4.644811e-08
-1.627452e-07
-2.9288701e-07
-1.9022178e-07
-1.7101635e-07
-1.2856899e-07
-7.9214374e-08
-3.0679982e-08
1.6443441e-08
6.306106e-08
1.1077421e-07
1.5555227e-07
1.8569153e-07
1.8062538e-07
1.2511096e-07
2.2769306e-08
-8.9263544e-08
-1.6642195e-07
-1.2054706e-07
-1.1459891e-07
-9.1322624e-08
-5.9241728e-08
-2.3993516e-08
1.1997084e-08
4.741807e-08
8.0754969e-08
1.0714886e-07
1.2029521e-07
1.1007821e-07
7.2531447e-08
1.2080739e-08
-5.2461321e-08
-1.0046382e-07
-7.822623e-08
-7.7158342e-08
-6.3854224e-08
-4.2724993e-08
-1.7412147e-08
9.1142476e-09
3.4893612e-08
5.7175432e-08
7.3045055e-08
7.8070964e-08
6.8658419e-08
4.3612106e-08
6.9232369e-09
-3.2323773e-08
-6.3093594e-08
-5.1096025e-08
-5.2283365e-08
-4.4640071e-08
-3.0311503e-08
-1.2097922e-08
7.0492939e-09
2.5141634e-08
3.9940905e-08
4.9392673e-08
5.092359e-08
4.3866406e-08
2.7168353e-08
4.0627149e-09
-2.0348444e-08
-4.0021232e-08
-3.5095516e-08
-3.691056e-08
-3.2160773e-08
-2.2009538e-08
-8.6034706e-09
5.5536824e-09
1.8556801e-08
2.8871086e-08
3.4879448e-08
3.5168945e-08
2.8933828e-08
1.77513e-08
2.4789471e-09
-1.3606181e-08
-2.6846214e-08
-2.7292537e-08
-2.8759934e-08
-2.5060098e-08
-1.6943699e-08
-6.2228349e-09
4.9211221e-09
1.4887276e-08
2.2674545e-08
2.6810292e-08
2.6409059e-08
2.1525704e-08
1.271126e-08
1.2935225e-09
-1.0695308e-08
-2.094139e-08
-2.4553781e-08
-2.5434739e-08
-2.1994164e-08
-1.4630008e-08
-4.9903311e-09
4.9289397e-09
1.3591915e-08
2.0260803e-08
2.3512882e-08
2.2736521e-08
1.8468999e-08
1.0384984e-08
4.6093546e-10
-9.9470776e-09
-1.9057626e-08
7.2026987e-06
-2.3425676e-05
6.261516e-06
1.6729606e-05
4.6764137e-06
1.0731956e-05
-6.7444054e-05
-1.9439387e-06
6.5044085e-05
-9.4119184e-06
-1.9386187e-06
-0.00013800018
-2.2256478e-07
0.00012938304
2.3474493e-06
2.031321e-06
3.9648921e-06
-2.398361e-07
-2.00467e-06
-4.5523042e-08
2.2682888e-06
8.983029e-06
-2.8806892e-07
-1.1374492e-05
-4.1953406e-06
6.0074266e-06
2.0661273e-05
-3.2054373e-07
-2.0021983e-05
-5.4303018e-06
-7.4542235e-07
2.9062016e-06
-5.2744888e-07
-2.0736251e-06
3.0268176e-07
1.7936437e-06
8.1470948e-06
-1.0978652e-07
-9.6412658e-06
-1.7001144e-06
6.6950595e-06
2.1211242e-05
8.3326108e-07
-1.9920354e-05
-7.1797169e-06
-1.4586823e-06
6.6172228e-08
-2.5794491e-07
-4.4813245e-07
3.0674203e-07
8.3298536e-07
1.6359029e-06
-7.2896385e-08
-1.8331907e-06
2.1850557e-07
3.3516317e-06
6.0474126e-06
7.2694392e-07
-5.3061636e-06
-3.8118211e-06
-1.1048446e-06
-4.4435565e-07
-2.6934976e-07
-1.7141607e-07
1.0152736e-07
2.9116787e-07
4.0347942e-07
6.9351385e-08
-1.39894e-07
5.9590472e-07
1.6650814e-06
2.1126665e-06
3.9068578e-07
-1.6724129e-06
-1.8141919e-06
-7.0578201e-07
-4.2870023e-07
-2.5454759e-07
-1.3348378e-07
-1.775088e-10
9.5907535e-08
1.5191133e-07
1.3584765e-07
2.0278892e-07
5.1600876e-07
8.6631611e-07
8.7252948e-07
1.9504692e-07
-6.2094748e-07
-8.7873632e-07
-4.315729e-07
-3.2062818e-07
-2.110863e-07
-1.1826201e-07
-3.2746211e-08
3.5843946e-08
9.0657405e-08
1.4096372e-07
2.2674758e-07
3.6793924e-07
4.7436294e-07
4.0755493e-07
9.7166501e-08
-2.6954672e-07
-4.5013099e-07
-2.6437197e-07
-2.2225434e-07
-1.5961991e-07
-9.6340082e-08
-3.6598406e-08
1.7619573e-08
6.8276451e-08
1.208174e-07
1.8290635e-07
2.4620737e-07
2.7183389e-07
2.0881302e-07
4.932551e-08
-1.3312514e-07
-2.4505052e-07
-1.6495639e-07
-1.5121972e-07
-1.166037e-07
-7.4607603e-08
-3.111228e-08
1.2102535e-08
5.3365517e-08
9.4758383e-08
1.3465141e-07
1.6314303e-07
1.616323e-07
1.1513084e-07
2.6254883e-08
-7.2715799e-08
-1.41735e-07
-1.0690741e-07
-1.0334376e-07
-8.3672288e-08
-5.542198e-08
-2.3600289e-08
9.5475239e-09
4.1248448e-08
7.0961009e-08
9.4990535e-08
1.0786835e-07
9.9016752e-08
6.7361224e-08
1.4342351e-08
-4.3289354e-08
-8.7095008e-08
-7.031163e-08
-7.0429172e-08
-5.9159526e-08
-4.0061974e-08
-1.6709201e-08
7.5777287e-09
3.0965178e-08
5.0908627e-08
6.5294327e-08
7.0484354e-08
6.1982035e-08
4.0778474e-08
8.3415372e-09
-2.7012068e-08
-5.5285513e-08
-4.600145e-08
-4.8372141e-08
-4.1684368e-08
-2.8336383e-08
-1.1355427e-08
6.2453638e-09
2.246165e-08
3.5843905e-08
4.4634567e-08
4.618152e-08
3.9951281e-08
2.5533584e-08
5.4428737e-09
-1.6446445e-08
-3.4807869e-08
-3.1458344e-08
-3.4486752e-08
-3.0369143e-08
-2.0634673e-08
-7.9020275e-09
5.413103e-09
1.7104946e-08
2.647711e-08
3.1976917e-08
3.1843314e-08
2.6655968e-08
1.7202894e-08
4.0230559e-09
-1.0533142e-08
-2.3340812e-08
-2.4573718e-08
-2.7111932e-08
-2.4039976e-08
-1.6014386e-08
-5.4014359e-09
5.2366825e-09
1.4195378e-08
2.1221189e-08
2.4708932e-08
2.3944821e-08
1.9641922e-08
1.259524e-08
2.7526475e-09
-8.2393064e-09
-1.8088176e-08
-2.1927626e-08
-2.3904946e-08
-2.1258046e-08
-1.3862394e-08
-4.0308863e-09
5.5038644e-09
1.3275727e-08
1.9208612e-08
2.1633915e-08
2.0390049e-08
1.6636476e-08
1.0352806e-08
1.9160832e-09
-7.6390608e-09
-1.6123019e-08
5.9793744e-06
3.5758058e-06
2.8683416e-06
1.1746601e-06
-8.593509e-06
3.9350113e-07
2.174973e-06
-6.4329994e-07
4.914643e-06
-1.450173e-05
1.5187769e-06
-3.2168181e-05
-6.7185716e-06
4.0351436e-05
-3.2771522e-07
2.1439171e-06
3.6860385e-06
-3.0984713e-07
-3.1460979e-06
-1.0208156e-06
9.5864978e-07
2.974884e-06
-5.5806893e-07
-4.0313878e-06
-3.784005e-07
3.5744348e-06
9.5146633e-06
1.2022258e-07
-1.0432708e-05
-3.0993194e-06
5.5822183e-09
2.5058255e-06
-4.6404341e-07
-2.8311371e-06
-4.9610331e-07
6.6653082e-07
2.1952795e-06
-4.5112539e-07
-3.2312608e-06
8.9789305e-07
4.305878e-06
1.0181613e-05
9.2913647e-07
-1.0145871e-05
-4.0713866e-06
-7.2542686e-07
4.7386329e-07
-2.4173028e-07
-1.0053349e-06
-3.5073851e-07
2.2668499e-07
6.2543834e-07
-1.940287e-07
-8.3489212e-07
6.3594869e-07
2.4775804e-06
3.7974363e-06
5.8675758e-07
-3.144175e-06
-2.332702e-06
-6.7893543e-07
-1.8171795e-07
-2.3277222e-07
-3.7552929e-07
-1.7094445e-07
4.7937206e-08
1.5873856e-07
-1.7057717e-08
-4.5900258e-08
5.6079365e-07
1.3082086e-06
1.5409876e-06
3.4362728e-07
-1.064743e-06
-1.1846482e-06
-4.8789306e-07
-2.8764723e-07
-2.1518681e-07
-1.8919938e-07
-9.4073886e-08
2.060549e-09
6.2114703e-08
7.1860447e-08
1.6048306e-07
4.3189942e-07
7.0589242e-07
6.9407145e-07
1.8823074e-07
-4.1135625e-07
-6.0990857e-07
-3.2457077e-07
-2.457982e-07
-1.7914892e-07
-1.25528e-07
-6.1965553e-08
-1.8411888e-09
4.9122642e-08
9.8611557e-08
1.8071593e-07
3.0620176e-07
3.9785615e-07
3.4301258e-07
9.9171056e-08
-1.8599933e-07
-3.3178293e-07
-2.1099593e-07
-1.8269265e-07
-1.3941556e-07
-9.3210365e-08
-4.5038059e-08
1.529322e-09
4.5412123e-08
9.4115562e-08
1.5090841e-07
2.0897174e-07
2.3318136e-07
1.8187476e-07
5.1155676e-08
-9.7779358e-08
-1.9146791e-07
-1.3806209e-07
-1.2948195e-07
-1.0335615e-07
-6.935398e-08
-3.2433332e-08
4.5111858e-09
4.0638729e-08
7.8493991e-08
1.1414838e-07
1.4082675e-07
1.4247821e-07
1.0283108e-07
2.7100486e-08
-5.6840548e-08
-1.1618803e-07
-9.2776208e-08
-9.1218235e-08
-7.5490819e-08
-5.1453368e-08
-2.3271296e-08
5.5999324e-09
3.4209651e-08
6.1391534e-08
8.3254702e-08
9.4550531e-08
8.9379584e-08
6.1254628e-08
1.5118501e-08
-3.5691051e-08
-7.4588612e-08
-6.2577595e-08
-6.3676577e-08
-5.4196444e-08
-3.7233602e-08
-1.5791661e-08
5.773389e-09
2.7391633e-08
4.5882255e-08
5.8796098e-08
6.301441e-08
5.748393e-08
3.8109651e-08
8.7266042e-09
-2.2911271e-08
-4.8554444e-08
-4.1514868e-08
-4.4246541e-08
-3.8649889e-08
-2.6525899e-08
-1.0823494e-08
5.5359461e-09
2.0766516e-08
3.3509455e-08
4.146971e-08
4.2638299e-08
3.6655942e-08
2.3988148e-08
5.5666177e-09
-1.4277655e-08
-3.1049742e-08
-2.8945711e-08
-3.2102015e-08
-2.849541e-08
-1.9367219e-08
-7.3721123e-09
4.9840473e-09
1.5824793e-08
2.4598004e-08
2.9618305e-08
2.9627672e-08
2.4589942e-08
1.6014972e-08
3.9632044e-09
-9.2467365e-09
-2.0732408e-08
-2.2569959e-08
-2.5353547e-08
-2.2626548e-08
-1.5088028e-08
-4.9770727e-09
5.0854143e-09
1.3564227e-08
2.0162935e-08
2.3553864e-08
2.2609185e-08
1.823911e-08
1.182332e-08
2.9691338e-09
-7.131133e-09
-1.6060207e-08
-1.9942308e-08
-2.2259078e-08
-1.9895189e-08
-1.3008188e-08
-3.6326316e-09
5.4996257e-09
1.2866855e-08
1.8400301e-08
2.1046645e-08
1.9526258e-08
1.5455176e-08
9.7733924e-09
2.3351142e-09
-6.4366231e-09
-1.4172809e-08
8.7363456e-06
-6.2161801e-05
2.8362768e-06
5.9365733e-05
-3.1593196e-06
7.4785251e-06
-3.5257804e-06
-3.3051405e-07
5.6024004e-06
8.0386777e-07
-5.5194623e-06
-1.3892757e-05
-7.598611e-06
4.8131394e-06
6.5497985e-06
6.3213732e-07
9.1091644e-06
7.7573877e-07
-8.4894486e-06
-2.9461122e-06
-5.0122357e-07
2.3835414e-07
-2.9002959e-07
-6.9216891e-07
-3.7502886e-07
9.3049958e-07
1.6387907e-06
1.5331521e-06
2.2719793e-07
-1.7915101e-06
-2.8225526e-07
8.0560688e-06
3.9994968e-07
-8.0077212e-06
-2.4672683e-06
-1.0019875e-06
-7.441061e-08
-6.049186e-07
-1.0316851e-06
2.9034651e-07
2.1649409e-06
3.6165291e-06
1.9252232e-06
-8.6094786e-07
-2.1236693e-06
-3.6106399e-07
1.4251561e-06
4.0072465e-08
-1.7848753e-06
-9.645774e-07
-4.5822938e-07
-2.6419472e-07
-4.1503893e-07
-3.3968646e-07
4.9265602e-07
1.4725074e-06
1.9496522e-06
8.6584146e-07
-5.9382382e-07
-1.0616479e-06
-3.8947126e-07
8.4430333e-08
-1.1275753e-07
-4.8468509e-07
-3.528059e-07
-2.1696642e-07
-1.6883048e-07
-1.6443072e-07
-2.9128735e-09
4.4348374e-07
8.947947e-07
9.9151121e-07
4.1715398e-07
-3.1830621e-07
-6.0610147e-07
-3.2213359e-07
-1.6839857e-07
-1.4932198e-07
-1.919231e-07
-1.4737664e-07
-9.7846412e-08
-6.4787093e-08
-1.31456e-08
1.2014736e-07
3.4574834e-07
5.329185e-07
5.1261853e-07
2.0478312e-07
-1.7641724e-07
-3.6649322e-07
-2.3908808e-07
-1.8264383e-07
-1.3976615e-07
-1.1354421e-07
-7.6322345e-08
-4.0323713e-08
-3.0765697e-09
5.2409811e-08
1.4244509e-07
2.5302714e-07
3.2104119e-07
2.7486314e-07
1.0079154e-07
-1.0591042e-07
-2.2924701e-07
-1.6865205e-07
-1.4828045e-07
-1.1555017e-07
-8.1917207e-08
-4.7162481e-08
-1.3158754e-08
2.3573909e-08
6.9974461e-08
1.26496e-07
1.7877461e-07
1.9774424e-07
1.5361668e-07
4.9940323e-08
-6.8193621e-08
-1.4731208e-07
-1.1722276e-07
-1.1133162e-07
-8.997197e-08
-6.2064888e-08
-3.2051331e-08
-1.0585969e-09
3.0850754e-08
6.6191425e-08
1.0066173e-07
1.2480737e-07
1.2481799e-07
8.97525e-08
2.5340738e-08
-4.5514748e-08
-9.6837486e-08
-8.1762053e-08
-8.1169586e-08
-6.7908496e-08
-4.6920088e-08
-2.2408074e-08
3.5082317e-09
2.9582116e-08
5.5180075e-08
7.5901047e-08
8.6324105e-08
8.04196e-08
5.4734199e-08
1.3543141e-08
-3.1221476e-08
-6.5383492e-08
-5.6688075e-08
-5.8039758e-08
-4.9730456e-08
-3.4563499e-08
-1.502385e-08
4.765589e-09
2.4820649e-08
4.2249475e-08
5.4852492e-08
5.8732317e-08
5.2689818e-08
3.4510297e-08
7.603166e-09
-2.1217329e-08
-4.3796774e-08
-3.8611269e-08
-4.1057826e-08
-3.5939997e-08
-2.4804567e-08
-1.0185365e-08
4.7781573e-09
1.9563537e-08
3.1742672e-08
3.9271179e-08
4.0023628e-08
3.4483712e-08
2.2158522e-08
4.52331e-09
-1.4104376e-08
-2.9158971e-08
-2.7388003e-08
-3.0069325e-08
-2.668852e-08
-1.8284914e-08
-7.3134576e-09
4.7845309e-09
1.5535119e-08
2.4257258e-08
2.9015883e-08
2.8763273e-08
2.3628815e-08
1.5040349e-08
2.8767592e-09
-9.9676106e-09
-2.0354506e-08
-2.131345e-08
-2.3622014e-08
-2.1016529e-08
-1.4105517e-08
-5.0116589e-09
4.6816443e-09
1.3288541e-08
2.0024811e-08
2.3319206e-08
2.2460606e-08
1.8017404e-08
1.127556e-08
2.0244088e-09
-7.7822951e-09
-1.5672299e-08
-1.8375735e-08
-2.0460338e-08
-1.8259636e-08
-1.2051268e-08
-3.7297853e-09
4.9685919e-09
1.2504299e-08
1.8168077e-08
2.0729837e-08
1.9389353e-08
1.5361592e-08
9.3860997e-09
1.6231576e-09
-6.6911424e-09
-1.3326801e-08
3.6659973e-05
2.7113768e-06
-1.6945158e-05
-4.368441e-06
3.922066e-06
-2.1059969e-06
1.4514315e-05
5.7974286e-06
-2.4505964e-06
-4.8457917e-06
-4.0281281e-06
-3.7339849e-06
3.3139662e-06
-2.8737173e-05
2.9392474e-07
-4.8655073e-06
1.2771117e-06
3.2565188e-06
-9.1772594e-07
-2.595768e-06
-5.3846918e-07
-1.3108433e-06
-1.4769958e-06
2.68307e-08
1.7965395e-07
-2.943006e-07
-8.9479474e-07
1.48652e-06
6.3821937e-06
2.8381048e-07
-4.8089112e-06
9.925067e-07
2.720692e-06
-7.9856783e-07
-1.5781018e-06
-7.7110787e-07
-2.3995586e-06
-1.9285534e-06
-2.5565415e-07
7.2364441e-07
9.0935464e-07
8.2377758e-07
1.6650091e-06
4.9714276e-06
-2.648256e-07
-1.1362376e-06
2.4529805e-07
5.6001141e-07
-2.7337871e-07
-3.763667e-07
-5.2911099e-07
-1.0913374e-06
-9.2444573e-07
-2.4685313e-07
4.5495325e-07
8.5634316e-07
9.535059e-07
9.0775497e-07
9.5732202e-07
-3.5125893e-07
-4.5051781e-07
-6.6483708e-08
6.5288001e-08
-9.215183e-08
-1.337252e-07
-2.7141584e-07
-4.6446474e-07
-3.7116893e-07
-3.2926393e-08
3.6850636e-07
6.2211943e-07
6.3159337e-07
4.1290707e-07
1.114785e-07
-3.1855632e-07
-2.845906e-07
-1.523779e-07
-6.6869221e-08
-6.6339336e-08
-7.2451685e-08
-1.2295092e-07
-1.6838641e-07
-9.5278339e-08
8.7851863e-08
2.9603291e-07
4.1617745e-07
3.7464244e-07
1.8242063e-07
-5.754935e-08
-2.5289174e-07
-2.0743787e-07
-1.5453957e-07
-9.8366789e-08
-6.6311562e-08
-4.9399353e-08
-4.8882151e-08
-3.8703042e-08
2.0596698e-08
1.233094e-07
2.2622912e-07
2.7022289e-07
2.1844486e-07
8.1745436e-08
-7.5900756e-08
-1.8646738e-07
-1.5219055e-07
-1.3003238e-07
-9.4043639e-08
-6.132212e-08
-3.5205819e-08
-1.5491728e-08
1.1804338e-08
5.7742886e-08
1.1673679e-07
1.6567592e-07
1.7476085e-07
1.2890196e-07
3.7562919e-08
-6.2267103e-08
-1.3111781e-07
-1.090328e-07
-1.0137528e-07
-7.89492e-08
-5.2408946e-08
-2.651021e-08
-8.5776757e-10
2.7656769e-08
6.1977167e-08
9.6303914e-08
1.1848074e-07
1.1390048e-07
7.7932309e-08
1.7601873e-08
-4.5866275e-08
-9.1139572e-08
-7.7928699e-08
-7.6230641e-08
-6.2473514e-08
-4.2163244e-08
-1.9400587e-08
4.279533e-09
2.8713329e-08
5.3658305e-08
7.3686144e-08
8.3026251e-08
7.5235246e-08
4.8825478e-08
8.7784451e-09
-3.2637902e-08
-6.3500302e-08
-5.474778e-08
-5.5340839e-08
-4.6800909e-08
-3.213087e-08
-1.3628836e-08
5.6693543e-09
2.5069721e-08
4.1921955e-08
5.4128866e-08
5.7294631e-08
4.9836567e-08
3.1341595e-08
4.9476202e-09
-2.2527984e-08
-4.3443755e-08
-3.7904896e-08
-3.9694587e-08
-3.4328079e-08
-2.3405031e-08
-9.0827499e-09
5.2910557e-09
1.9933133e-08
3.1789169e-08
3.8998471e-08
3.9293533e-08
3.3094197e-08
2.0312727e-08
2.677952e-09
-1.5294906e-08
-2.9080948e-08
-2.689396e-08
-2.9227904e-08
-2.5737344e-08
-1.7516256e-08
-6.8536507e-09
5.2617332e-09
1.6015612e-08
2.4610645e-08
2.9120632e-08
2.8525047e-08
2.3008404e-08
1.3934645e-08
1.5341274e-09
-1.1031539e-08
-2.0664025e-08
-2.0933608e-08
-2.2921865e-08
-2.0228207e-08
-1.3485241e-08
-4.6641801e-09
5.0040909e-09
1.3589893e-08
2.0251455e-08
2.3397259e-08
2.2421564e-08
1.7965333e-08
1.0718021e-08
1.1939568e-09
-8.4636504e-09
-1.5973036e-08
-1.7971886e-08
-1.9703514e-08
-1.739507e-08
-1.1364254e-08
-3.3592951e-09
5.2906778e-09
1.2718946e-08
1.8312595e-08
2.0775612e-08
1.9477366e-08
1.5640523e-08
9.1441987e-09
1.046157e-09
-7.1932545e-09
-1.3649422e-08
1.4748672e-05
-3.5992796e-06
-5.281175e-06
9.063243e-06
3.6721404e-06
-5.2926355e-06
-1.5665127e-07
3.3652756e-06
3.2349278e-06
-6.9303817e-06
-2.4019037e-06
1.7675721e-07
-2.1007225e-06
-1.1919855e-05
3.4182951e-06
-3.2229141e-06
-1.4582416e-06
1.3110245e-06
2.007712e-06
3.6209639e-06
5.6790452e-07
-4.6143936e-06
-3.326659e-06
-9.7126937e-07
5.6714247e-08
-3.9476147e-07
-7.8558754e-07
1.2542409e-06
4.7210897e-06
1.2306281e-06
-3.2613864e-06
-8.3659253e-07
1.4609653e-06
1.4354363e-06
3.256825e-06
2.5528031e-07
-4.682428e-06
-3.295481e-06
-1.0242121e-06
8.2688666e-07
6.7101717e-07
1.9475851e-07
1.3255151e-06
3.4745229e-06
2.0011672e-07
-1.0787906e-06
-3.0296605e-07
5.5771609e-07
8.510365e-07
1.2196807e-06
-2.0738441e-07
-1.9652704e-06
-1.4913142e-06
-3.8289963e-07
5.3267403e-07
7.2390398e-07
5.4756556e-07
5.9370308e-07
6.9766355e-07
-2.8846698e-07
-5.0794356e-07
-1.904829e-07
1.6941984e-07
3.403214e-07
3.6504818e-07
-1.6404576e-07
-7.1570236e-07
-5.4259554e-07
-3.0821423e-08
4.2774891e-07
5.6765922e-07
4.3572221e-07
2.2704103e-07
-6.56662e-09
-3.6291122e-07
-3.2250485e-07
-1.7371306e-07
-2.60816e-09
9.0540788e-08
8.5810077e-08
-8.0827387e-08
-2.273207e-07
-1.3133522e-07
1.1390443e-07
3.3589401e-07
3.9748852e-07
2.8610654e-07
8.0326006e-08
-1.3531807e-07
-3.033481e-07
-2.2803748e-07
-1.5640078e-07
-6.7735585e-08
-8.681627e-09
4.4412127e-09
-2.8856836e-08
-4.5060345e-08
2.3133406e-08
1.4632851e-07
2.4930925e-07
2.6570815e-07
1.7870902e-07
2.7478768e-08
-1.2460944e-07
-2.2235023e-07
-1.6405326e-07
-1.3025952e-07
-8.1054837e-08
-3.9878817e-08
-1.5089531e-08
-4.4303315e-09
1.675364e-08
6.6625069e-08
1.321042e-07
1.7930702e-07
1.740923e-07
1.1070409e-07
9.6992589e-09
-9.043237e-08
-1.5357789e-07
-1.1597416e-07
-1.0201251e-07
-7.4015893e-08
-4.4281185e-08
-1.8343615e-08
6.0222805e-09
3.3807426e-08
6.9802234e-08
1.05953e-07
1.2593163e-07
1.1440041e-07
6.9572263e-08
3.6138751e-09
-6.1394362e-08
-1.0483761e-07
-8.2411493e-08
-7.7370186e-08
-6.0635416e-08
-3.8602129e-08
-1.5405989e-08
8.5756868e-09
3.3201743e-08
5.8718676e-08
7.9261328e-08
8.7304124e-08
7.5831417e-08
4.4854112e-08
1.6841308e-09
-4.0696922e-08
-7.1139002e-08
-5.7568181e-08
-5.6649688e-08
-4.671558e-08
-3.0792104e-08
-1.1443555e-08
8.4047376e-09
2.7920864e-08
4.5099651e-08
5.7365156e-08
5.9763224e-08
5.0216645e-08
2.9240023e-08
1.002637e-09
-2.7292307e-08
-4.7884427e-08
-3.9903354e-08
-4.0627721e-08
-3.4375464e-08
-2.2746257e-08
-7.8016112e-09
7.2612154e-09
2.1866768e-08
3.3736941e-08
4.0935234e-08
4.0741168e-08
3.3229879e-08
1.8988284e-08
4.57363e-10
-1.7978993e-08
-3.1776568e-08
-2.8239098e-08
-2.9926339e-08
-2.593601e-08
-1.7229705e-08
-5.943027e-09
6.5441408e-09
1.7472717e-08
2.6004373e-08
3.0333261e-08
2.9232488e-08
2.2961138e-08
1.3013942e-08
1.7404853e-10
-1.2593803e-08
-2.2426108e-08
-2.213264e-08
-2.3606524e-08
-2.0530474e-08
-1.3338953e-08
-3.900518e-09
5.8875178e-09
1.4625369e-08
2.1232003e-08
2.4143024e-08
2.2843652e-08
1.7873662e-08
1.0244177e-08
5.2602526e-10
-9.2465936e-09
-1.7054488e-08
-1.9255273e-08
-2.0497119e-08
-1.7775219e-08
-1.117918e-08
-2.4527282e-09
5.9933418e-09
1.3472645e-08
1.9079417e-08
2.135176e-08
1.9914208e-08
1.5728563e-08
9.0699055e-09
7.7029171e-10
-7.6683053e-09
-1.446238e-08
3.5253242e-06
1.3798506e-05