/*--------------------------------*- C++ -*----------------------------------*\
| =========                 |                                                 |
| \\      /  F ield         | OpenFOAM: The Open Source CFD Toolbox           |
|  \\    /   O peration     | Version:  3.0.1                                 |
|   \\  /    A nd           | Web:      www.OpenFOAM.org                      |
|    \\/     M anipulation  |                                                 |
\*---------------------------------------------------------------------------*/
FoamFile
{
    version     2.0;
    format      ascii;
    class       volScalarField;
    location    "0.1";
    object      sigmayz;
}
// * * * * * * * * * * * * * * * * * * * * * * * * * * * * * * * * * * * * * //

dimensions      [0 2 -2 0 0 0 0];

internalField   nonuniform List<scalar> 
3375
(
-1.1168347e-06
-2.5548102e-06
-2.8410076e-06
1.6041325e-06
2.8098188e-06
2.1940584e-07
-1.0144905e-07
-8.9952371e-07
-1.407509e-06
-2.2335415e-06
-1.3944799e-06
2.1785801e-06
3.9409225e-06
1.9273544e-06
-1.32648e-07
7.9541992e-07
5.1352793e-06
7.2170835e-06
-7.6959739e-06
-5.1571494e-06
5.2249321e-06
-1.2963844e-07
1.2937015e-06
7.1496637e-07
3.5619003e-06
2.3469521e-06
-6.830035e-06
-6.612402e-06
-3.2534185e-07
4.5219094e-07
1.022407e-06
2.2356331e-06
2.5440945e-06
-1.5314983e-06
-2.4917389e-06
-2.705294e-08
6.3499007e-08
6.1277163e-07
9.2749776e-07
1.7051385e-06
1.120329e-06
-1.9227767e-06
-3.2811562e-06
-1.3385738e-06
3.6519444e-07
4.4145154e-07
8.7079236e-07
8.3675309e-07
-3.3394555e-07
-9.0364222e-07
-3.6796532e-07
-1.3224145e-08
3.4476311e-07
6.3487404e-07
8.562963e-07
5.0585327e-07
-5.9690556e-07
-1.3333019e-06
-8.7180365e-07
-6.1823197e-08
1.2720141e-07
3.0528986e-07
2.7280049e-07
-7.5541711e-08
-2.9974732e-07
-1.8573601e-07
-4.180095e-10
1.966792e-07
3.5594195e-07
4.1440661e-07
2.2284958e-07
-2.103343e-07
-5.3554778e-07
-4.4889978e-07
-1.3684744e-07
1.6282098e-08
9.4479086e-08
8.7822345e-08
-1.4846236e-08
-9.2153258e-08
-6.4352665e-08
1.6347799e-08
1.1115876e-07
1.844071e-07
1.9431689e-07
9.7777882e-08
-8.2565805e-08
-2.2335495e-07
-2.1671626e-07
-1.0394745e-07
-1.1211267e-08
2.3436104e-08
2.670421e-08
-1.0657799e-09
-2.4155993e-08
-1.4736215e-08
1.9596441e-08
6.2405237e-08
9.279209e-08
8.9321001e-08
4.2823912e-08
-3.5921671e-08
-9.7389645e-08
-1.0407459e-07
-6.4157057e-08
-1.5330675e-08
2.193245e-09
7.6446547e-09
1.4616303e-09
-4.3307398e-09
1.3724068e-09
1.6062075e-08
3.4509385e-08
4.6212325e-08
4.179114e-08
1.7847229e-08
-1.7105001e-08
-4.4161314e-08
-5.0320625e-08
-3.7163458e-08
-1.304765e-08
-2.7555402e-09
1.7699092e-09
1.6825006e-09
1.658859e-09
3.9787655e-09
1.1164314e-08
1.8780136e-08
2.233713e-08
1.9204735e-08
7.8795048e-09
-7.5336445e-09
-2.0385771e-08
-2.5287782e-08
-2.0954649e-08
-7.7755182e-09
-2.683426e-09
-1.8005003e-10
9.1040425e-10
2.4351739e-09
4.1522098e-09
7.5303489e-09
1.036373e-08
1.1090883e-08
9.150667e-09
2.7722501e-09
-3.6613599e-09
-1.0127355e-08
-1.3391686e-08
-1.1423904e-08
-3.4065009e-09
-1.6059958e-09
-1.091758e-10
1.0144514e-09
2.0096406e-09
3.9700684e-09
4.8833957e-09
5.6910249e-09
5.5762281e-09
3.8131697e-09
-2.2574847e-10
-3.110655e-09
-5.9198503e-09
-7.0515964e-09
-5.7833147e-09
-2.3402358e-09
-1.1930837e-09
2.4942093e-10
1.4445013e-09
2.1821517e-09
2.5561966e-09
2.763591e-09
2.7783006e-09
2.3540589e-09
9.0557925e-10
-4.0839262e-10
-2.375858e-09
-3.5654856e-09
-3.7142704e-09
-3.0552994e-09
-2.9435427e-09
-1.6345955e-09
-4.2960803e-10
6.161778e-10
1.4534066e-09
1.265768e-09
1.5244925e-09
1.7773009e-09
1.7107449e-09
1.0675061e-09
3.7144352e-10
-1.0510392e-09
-1.9606082e-09
-2.5133978e-09
-3.028315e-09
-2.6597431e-09
-1.5674065e-09
-7.3293635e-10
-7.7209425e-11
5.2232802e-10
1.146139e-10
6.9526758e-10
1.2231784e-09
1.4052658e-09
1.2578982e-09
1.0977911e-09
-1.6818781e-10
-9.6947636e-10
-1.6504522e-09
-2.4599641e-09
-1.8375148e-09
-2.038234e-09
-1.8077415e-09
-1.3653925e-09
-8.16334e-10
1.1029547e-10
1.1794896e-09
1.8709572e-09
2.0492425e-09
1.7408548e-09
1.187148e-09
2.528037e-10
-6.2594974e-10
-1.3336003e-09
-1.7448236e-09
-2.1190096e-06
-1.4016666e-06
-1.0450029e-06
4.2829401e-07
1.6925659e-06
9.4531343e-07
-2.5615177e-07
-5.4442974e-07
-7.3117045e-07
-1.4808581e-06
-4.4835151e-07
2.7296435e-06
5.2478005e-06
7.0414816e-07
-3.7184012e-06
5.0220739e-06
1.9032574e-06
1.3579494e-06
-1.0379054e-06
-2.4642496e-06
2.47633e-08
2.5861938e-06
5.6731753e-07
-2.4718501e-06
1.2534861e-06
9.0980192e-07
-7.2954587e-06
-1.9785737e-05
5.8803414e-07
1.8839165e-05
2.0260578e-06
1.2301293e-06
9.0374256e-07
-3.5877818e-07
-1.4252839e-06
-7.3057212e-07
2.5175147e-07
2.9400079e-07
2.8691825e-07
1.0093226e-06
2.3782236e-07
-2.4807563e-06
-4.6997178e-06
-3.1771443e-07
3.7834379e-06
6.4652875e-07
5.5345336e-07
4.0910848e-07
-1.2981273e-07
-6.1734732e-07
-4.6323628e-07
-6.5506067e-08
2.1459005e-07
4.555412e-07
6.0559229e-07
1.8312614e-07
-7.6412374e-07
-1.3305242e-06
-3.747537e-07
6.8511524e-07
1.573985e-07
1.9706689e-07
1.5106368e-07
-5.0490571e-08
-2.3948684e-07
-2.0666774e-07
-3.6554979e-08
1.4943914e-07
3.0184452e-07
3.3582939e-07
1.3823668e-07
-2.2665529e-07
-4.4968574e-07
-2.589097e-07
4.2648998e-08
8.301043e-09
4.9908255e-08
4.3347979e-08
-2.2958469e-08
-8.5606569e-08
-7.2811209e-08
3.8492558e-09
1.0016741e-07
1.7538709e-07
1.8176474e-07
8.9407539e-08
-6.7479752e-08
-1.7571048e-07
-1.5443724e-07
-6.4312457e-08
-2.7582299e-08
-7.357925e-10
5.5807285e-09
-1.126437e-08
-2.7559469e-08
-1.7968475e-08
1.805456e-08
6.4260266e-08
9.8517294e-08
9.7991083e-08
5.1387946e-08
-2.066976e-08
-7.6646494e-08
-8.6573042e-08
-5.9574345e-08
-2.7361629e-08
-1.248665e-08
-5.1843443e-09
-6.2453455e-09
-7.1464989e-09
4.7141925e-10
1.8358144e-08
4.022554e-08
5.4442871e-08
5.1698315e-08
2.8958419e-08
-6.1583241e-09
-3.6275992e-08
-4.8082248e-08
-4.2296754e-08
-1.9232615e-08
-1.1363557e-08
-6.3178958e-09
-3.786189e-09
-8.8900551e-10
5.4523616e-09
1.4479628e-08
2.4152312e-08
2.9496669e-08
2.6882469e-08
1.580403e-08
-1.5803336e-09
-1.7994917e-08
-2.690646e-08
-2.683722e-08
-1.2088793e-08
-7.9247365e-09
-4.446601e-09
-1.6607549e-09
1.2524746e-09
4.955051e-09
9.6403105e-09
1.3700236e-08
1.554697e-08
1.392205e-08
7.5630454e-09
-8.7559895e-10
-9.3664705e-09
-1.445116e-08
-1.4784396e-08
-7.071943e-09
-5.1551462e-09
-2.756875e-09
-4.7230523e-10
1.6270466e-09
3.2749254e-09
5.6815442e-09
7.5473618e-09
8.0330155e-09
6.2680447e-09
2.7232961e-09
-1.4823163e-09
-5.5060954e-09
-7.787169e-09
-7.7680363e-09
-4.149466e-09
-3.45655e-09
-2.1252999e-09
-6.5489413e-10
6.574779e-10
2.4304194e-09
3.3685508e-09
4.2493622e-09
4.3184944e-09
2.6645836e-09
1.0086586e-09
-1.2773078e-09
-3.3997484e-09
-4.8117871e-09
-5.2641465e-09
-4.1029129e-09
-3.033518e-09
-1.9482771e-09
-9.6573952e-10
-2.3649673e-10
1.263267e-09
1.8169515e-09
2.5955385e-09
2.9126808e-09
2.4446861e-09
1.1043516e-09
-4.86572e-10
-1.976542e-09
-3.3064896e-09
-4.6570989e-09
-3.4490901e-09
-2.4865179e-09
-1.7669848e-09
-1.1942702e-09
-8.8866643e-10
2.3939975e-10
1.0456866e-09
1.8180784e-09
2.1783522e-09
2.2740163e-09
1.3570824e-09
-2.3009036e-11
-1.1052914e-09
-2.1583529e-09
-3.5322202e-09
-4.4793807e-09
-4.4843554e-09
-3.8852577e-09
-2.8266364e-09
-1.5161157e-09
-1.9434505e-10
1.5789092e-09
2.6823527e-09
3.0220351e-09
2.6740124e-09
1.5818632e-09
1.4315753e-12
-1.5834686e-09
-2.9335153e-09
-3.8393259e-09
-2.4440917e-07
3.6489289e-07
-2.2724551e-07
-1.0487955e-06
2.0922903e-06
2.9848646e-06
6.9707585e-07
-5.753928e-08
-2.0112276e-06
-2.5077189e-06
-1.0146443e-06
4.3297498e-07
1.2004169e-06
1.4746681e-07
-8.091243e-07
2.1099932e-06
-1.60311e-06
-7.3512326e-07
6.5327926e-06
-8.0574419e-06
-1.1044746e-05
1.9064393e-06
-2.3272028e-06
3.0735197e-06
6.2418363e-06
1.4889346e-06
-3.8073659e-07
-3.6774753e-06
8.2872123e-07
5.6558107e-06
4.4140962e-07
-2.4906941e-07
2.4179648e-07
1.0740152e-06
-1.8941357e-06
-2.7478139e-06
-6.4734564e-07
-1.7672454e-07
1.5128137e-06
1.9721157e-06
6.8938715e-07
-4.3934397e-07
-9.6849899e-07
1.4473679e-07
1.063875e-06
1.6265005e-08
-3.6131808e-08
1.3932066e-07
1.6635145e-07
-5.3815718e-07
-7.9109358e-07
-3.4564448e-07
1.0761285e-07
6.9003546e-07
7.9657049e-07
3.7816357e-07
-1.269503e-07
-3.5934743e-07
-1.5172266e-07
6.3829043e-08
-8.1050637e-08
-3.4798185e-08
3.4379949e-08
8.4076575e-09
-1.7627039e-07
-2.3917585e-07
-9.7359679e-08
1.2358561e-07
3.4340955e-07
3.8007934e-07
2.2201445e-07
-1.1882552e-08
-1.6665138e-07
-1.721293e-07
-1.2095746e-07
-8.5631242e-08
-4.4837795e-08
-1.0334232e-08
-1.6904635e-08
-6.0962134e-08
-6.605641e-08
-3.560055e-09
9.7197295e-08
1.8618884e-07
1.992814e-07
1.28813e-07
1.2878504e-08
-8.46815e-08
-1.2445704e-07
-1.1791754e-07
-6.7559594e-08
-4.2244295e-08
-2.1726751e-08
-1.6643064e-08
-2.071228e-08
-1.1468547e-08
2.0976398e-08
6.779942e-08
1.0492368e-07
1.0954847e-07
7.2163799e-08
1.28931e-08
-4.4423841e-08
-7.8418115e-08
-8.2401572e-08
-4.5113323e-08
-3.1562199e-08
-1.905759e-08
-1.1297605e-08
-5.6683099e-09
4.1145685e-09
2.2713055e-08
4.4621625e-08
5.9979072e-08
5.9952125e-08
4.0569837e-08
8.8416594e-09
-2.4019154e-08
-4.6026332e-08
-5.1556184e-08
-2.7083202e-08
-2.1093132e-08
-1.363865e-08
-6.8889255e-09
-6.46662e-10
6.9062651e-09
1.7066807e-08
2.7419201e-08
3.4079714e-08
3.2591266e-08
2.2589194e-08
4.5402397e-09
-1.362645e-08
-2.5856449e-08
-2.9860504e-08
-1.6226335e-08
-1.3570079e-08
-9.0449598e-09
-4.2135003e-09
2.3063105e-10
5.6938898e-09
1.1150146e-08
1.637179e-08
1.9436406e-08
1.8044384e-08
1.1625606e-08
1.7778948e-09
-7.695343e-09
-1.415428e-08
-1.696695e-08
-1.0447809e-08
-8.81856e-09
-6.087635e-09
-3.0259305e-09
2.684545e-11
3.3618063e-09
6.5505711e-09
9.3450155e-09
1.0628691e-08
9.592916e-09
5.5198858e-09
7.494885e-10
-4.2705833e-09
-8.195301e-09
-1.0265431e-08
-6.5135002e-09
-5.556285e-09
-4.1255538e-09
-2.3816384e-09
-3.2305005e-10
1.6021899e-09
3.502278e-09
4.9991003e-09
5.4238046e-09
4.4318656e-09
2.9329473e-09
4.8420387e-10
-2.3867008e-09
-4.9460113e-09
-6.4816872e-09
-3.9285925e-09
-3.5517377e-09
-2.9604221e-09
-2.063055e-09
-8.4832912e-10
6.2878577e-10
1.9498522e-09
2.7984172e-09
2.9007056e-09
2.2799644e-09
1.6033165e-09
2.2281873e-10
-1.3413295e-09
-2.8131061e-09
-3.8430513e-09
-2.2188275e-09
-2.2802456e-09
-2.1467046e-09
-1.6500443e-09
-9.4900007e-10
1.0200075e-10
1.0397235e-09
1.5117994e-09
1.5190969e-09
1.1631394e-09
7.8796452e-10
1.5592862e-10
-5.5183833e-10
-1.3643611e-09
-2.1014282e-09
-6.3021962e-09
-5.7030224e-09
-4.6658233e-09
-3.344293e-09
-1.8741217e-09
-2.6231532e-10
1.4870988e-09
2.8170976e-09
3.4935452e-09
3.358422e-09
1.9167073e-09
-2.4960891e-10
-2.6195523e-09
-4.6278958e-09
-5.954795e-09
2.9215313e-06
2.1828074e-06
-1.9084583e-07
-1.7965987e-06
-3.5067594e-07
1.4334357e-06
2.8043813e-06
-2.6388312e-07
-3.7692903e-06
-2.1342108e-06
-9.4668513e-07
-8.9712747e-07
-3.26759e-06
-7.405871e-08
4.3516053e-06
-5.7158837e-06
-5.899678e-06
1.6632453e-06
6.3639765e-06
1.1909952e-06
-3.2746958e-06
-1.3168621e-05
-8.4040328e-07
1.4731487e-05
3.4044607e-06
-1.1566024e-06
-1.5780439e-06
1.7095839e-05
4.2243643e-06
-1.7032525e-05
-2.3244917e-06
-1.767594e-06
3.23716e-07
1.7407984e-06
3.3889282e-07
-1.3588709e-06
-2.7872514e-06
9.005e-11
3.2317119e-06
1.5739708e-06
4.9722442e-07
6.2342266e-07
3.225244e-06
4.1521494e-07
-3.7232063e-06
-9.4103471e-07
-6.354286e-07
2.0679198e-08
4.4455769e-07
8.7542645e-08
-4.0651386e-07
-5.8269942e-07
1.4112493e-07
9.278445e-07
7.5234447e-07
5.0413215e-07
4.3821966e-07
5.9038917e-07
-2.113387e-07
-1.1203814e-06
-4.249872e-07
-2.8022734e-07
-4.9860002e-08
9.3623724e-08
1.9485971e-08
-9.688925e-08
-8.5227229e-08
1.4360403e-07
3.773977e-07
3.9074151e-07
3.1468527e-07
2.1133845e-07
7.916894e-08
-2.1762555e-07
-4.5715335e-07
-2.1520279e-07
-1.4814749e-07
-5.6331853e-08
3.7394555e-09
1.2328296e-09
-1.1010094e-08
2.2634804e-08
1.1087869e-07
1.9485417e-07
2.1289031e-07
1.7520451e-07
9.8959865e-08
-1.081095e-08
-1.418066e-07
-2.2454211e-07
-1.1555883e-07
-8.5771657e-08
-4.5986233e-08
-1.5681414e-08
-2.6995622e-09
1.0155413e-08
3.6024546e-08
7.56016e-08
1.0969974e-07
1.1771265e-07
9.4568489e-08
4.7831815e-08
-1.7771548e-08
-8.2593009e-08
-1.2033395e-07
-6.3932886e-08
-5.0292361e-08
-3.1318717e-08
-1.4174585e-08
-1.3991552e-09
1.1717017e-08
2.9124945e-08
4.8219619e-08
6.2981427e-08
6.5090218e-08
5.0583394e-08
2.3098854e-08
-1.3010392e-08
-4.6100997e-08
-6.4310789e-08
-3.5338098e-08
-3.0134042e-08
-1.9918626e-08
-9.3006655e-09
-3.302223e-10
8.3568446e-09
1.8509236e-08
2.8856909e-08
3.6413022e-08
3.6331206e-08
2.830365e-08
1.0847956e-08
-8.1307968e-09
-2.4427058e-08
-3.4104491e-08
-1.9997147e-08
-1.8089359e-08
-1.2350094e-08
-6.0473012e-09
-7.4657453e-10
5.2591556e-09
1.1293559e-08
1.758818e-08
2.1562151e-08
2.0137486e-08
1.5955465e-08
5.4560439e-09
-4.406263e-09
-1.2982971e-08
-1.9185449e-08
-1.220641e-08
-1.085465e-08
-8.1695195e-09
-4.834253e-09
-1.0513231e-09
3.121847e-09
7.0417195e-09
1.0376508e-08
1.2009168e-08
1.1027682e-08
7.9461439e-09
3.0501149e-09
-2.5889489e-09
-7.8519885e-09
-1.1478389e-08
-7.186044e-09
-6.5500238e-09
-5.5611137e-09
-3.7795918e-09
-8.8116045e-10
1.4103395e-09
3.7381951e-09
5.2367159e-09
5.6123934e-09
5.2333848e-09
3.5785156e-09
1.5140535e-09
-1.5740468e-09
-4.4724045e-09
-6.0463805e-09
-3.0691782e-09
-3.720985e-09
-3.8236996e-09
-2.8934514e-09
-1.027516e-09
5.061525e-10
2.024241e-09
2.5275567e-09
2.235719e-09
1.4577369e-09
1.497353e-09
8.3632549e-10
-4.1280815e-10
-1.724379e-09
-2.4755025e-09
-1.238057e-09
-2.2354995e-09
-2.512274e-09
-1.904064e-09
-8.2840763e-10
8.520435e-11
9.1525665e-10
9.8161018e-10
6.4985912e-10
-7.7443e-12
4.2465885e-10
7.1542071e-10
3.223986e-10
-4.238965e-10
-1.07918e-09
-7.5814505e-09
-6.168987e-09
-4.7143975e-09
-3.4240022e-09
-2.2872232e-09
-7.2649195e-10
1.0771357e-09
2.7067802e-09
3.8280292e-09
4.0856949e-09
2.3986917e-09
-4.5908594e-10
-3.478136e-09
-5.9123284e-09
-7.4517451e-09
3.0157418e-06
2.3683007e-06
1.7861082e-07
-1.986389e-06
-2.4790768e-06
-9.0860324e-07
7.563559e-07
-7.482514e-07
-1.0286883e-06
-6.0031828e-08
-1.2898087e-06
-2.0529811e-06
-1.6116262e-06
1.7071467e-06
4.1470197e-06
-3.2789221e-06
-4.0732148e-06
4.2332044e-07
4.9894286e-06
8.4047095e-06
2.3921541e-06
-6.7149444e-06
2.0868166e-06
1.9198043e-06
-5.5104616e-06
-3.1242298e-07
2.7095743e-07
5.5190789e-06
1.4587055e-06
-7.56177e-06
-2.2373119e-06
-1.8093344e-06
3.6010725e-08
1.8906165e-06
2.2712289e-06
7.2352365e-07
-9.4634098e-07
4.3823119e-07
6.1334447e-07
-4.1170412e-07
7.5807895e-07
1.6070514e-06
1.5616612e-06
-1.1814255e-06
-3.3061818e-06
-1.1675192e-06
-8.1201739e-07
-9.4812398e-08
5.6988062e-07
6.6769308e-07
2.9919194e-07
-9.9654025e-09
2.5240682e-07
3.7797848e-07
3.2204055e-07
6.4150963e-07
8.2469334e-07
3.7075614e-07
-7.8358989e-07
-1.4435124e-06
-5.7517491e-07
-3.9537274e-07
-1.1364325e-07
1.3487805e-07
2.0139881e-07
1.390974e-07
1.0205226e-07
1.8561828e-07
2.6020426e-07
3.0346156e-07
3.810308e-07
3.5503405e-07
6.5660049e-08
-3.9810957e-07
-6.4442035e-07
-2.8525155e-07
-2.0587777e-07
-9.038301e-08
1.153365e-08
5.8125035e-08
6.6923814e-08
8.4773898e-08
1.2769863e-07
1.6862584e-07
1.9604136e-07
2.0538079e-07
1.5240585e-07
9.56936e-10
-1.9290597e-07
-2.9872359e-07
-1.4368247e-07
-1.1011458e-07
-6.0326379e-08
-1.4467311e-08
1.5001084e-08
3.4989833e-08
5.8280606e-08
8.2717965e-08
1.0383885e-07
1.1381657e-07
1.0919907e-07
7.0130721e-08
-6.963714e-09
-9.2338195e-08
-1.4398995e-07
-7.424351e-08
-6.0938496e-08
-3.8967268e-08
-1.6366571e-08
2.2784595e-09
1.8720003e-08
3.517023e-08
4.9872827e-08
6.1273759e-08
6.4267221e-08
5.6880193e-08
3.3481661e-08
-5.554922e-09
-4.5670251e-08
-7.1117241e-08
-3.9149845e-08
-3.4329683e-08
-2.3687535e-08
-1.1660999e-08
-1.2175645e-09
1.0016799e-08
1.972667e-08
2.9135088e-08
3.6309093e-08
3.7803481e-08
2.9268096e-08
1.5935721e-08
-3.3149946e-09
-2.251804e-08
-3.5897877e-08
-2.148031e-08
-1.9678405e-08
-1.4066909e-08
-7.471859e-09
-1.7491315e-09
4.6750695e-09
1.027031e-08
1.5976974e-08
1.9877641e-08
2.0559836e-08
1.621552e-08
7.866814e-09
-1.9109674e-09
-1.141544e-08
-1.8693385e-08
-1.1914234e-08
-1.1145635e-08
-8.7938058e-09
-5.484733e-09
-1.5998766e-09
2.1545275e-09
5.9572329e-09
8.9339717e-09
1.0358665e-08
1.0072268e-08
9.1715449e-09
4.4814245e-09
-1.0852774e-09
-6.4146542e-09
-1.021969e-08
-6.1112247e-09
-6.162227e-09
-5.639585e-09
-4.1383469e-09
-1.5095007e-09
1.2075304e-09
3.7896029e-09
5.4644378e-09
6.0993292e-09
5.7211201e-09
3.5615794e-09
2.209606e-09
-4.994489e-10
-3.294602e-09
-5.1104853e-09
-2.8215148e-09
-3.5139727e-09
-3.643508e-09
-2.8174089e-09
-1.1964515e-09
5.0781065e-10
1.8846024e-09
2.4989068e-09
2.5923665e-09
2.4287853e-09
7.8593032e-10
8.61743e-10
-5.4878945e-11
-1.1597792e-09
-1.8625725e-09
-1.452389e-09
-2.1458823e-09
-2.2410607e-09
-1.6673717e-09
-7.3567617e-10
1.8036083e-10
8.344788e-10
9.2789682e-10
8.2605503e-10
8.426831e-10
-2.3959977e-10
3.545053e-10
1.90337e-10
-3.0960872e-10
-7.1790525e-10
-6.8941453e-09
-5.7687301e-09
-4.467916e-09
-3.2816523e-09
-2.2486254e-09
-9.9486663e-10
4.4636362e-10
1.7509066e-09
2.6882496e-09
2.962528e-09
2.4172586e-09
-1.8581138e-10
-2.7860773e-09
-5.0586174e-09
-6.7764283e-09
2.2576894e-06
2.5394819e-06
8.0565265e-07
-1.7389943e-06
-1.777532e-06
-1.9891567e-06
-3.075761e-06
-9.5477035e-07
1.598554e-06
-2.0137674e-07
-3.1403646e-06
-6.2143925e-06
1.806598e-07
7.1640961e-06
4.5542079e-06
-8.0122795e-07
-7.4974171e-06
-1.4451681e-06
8.0650333e-06
3.2590239e-06
3.4587114e-06
1.1620241e-05
1.0279889e-06
-1.1433041e-05
-2.0480579e-06
5.8138914e-06
2.433596e-05
-1.432568e-06
-2.6343343e-05
-6.5730055e-06
-1.5378303e-06
-2.0027201e-06
-5.2377494e-07
1.738312e-06
1.5938034e-06
1.6809166e-06
2.682019e-06
6.1318153e-07
-1.8746043e-06
-2.0172485e-07
2.5275335e-06
5.6193027e-06
-1.7472642e-07
-6.4546593e-06
-3.6791389e-06
-9.986786e-07
-7.8125827e-07
-2.737327e-07
3.7762341e-07
5.7133483e-07
6.7144532e-07
8.1284338e-07
3.8241703e-07
-1.1318028e-07
2.693598e-07
1.0603896e-06
1.536577e-06
-2.8536334e-08
-1.8423192e-06
-1.6337885e-06
-5.351551e-07
-3.8274721e-07
-1.7592208e-07
5.2606245e-08
1.816486e-07
2.599216e-07
3.1035714e-07
2.3199029e-07
1.471313e-07
2.59441e-07
4.6826844e-07
4.9803565e-07
-7.7610153e-09
-6.0403359e-07
-6.9973759e-07
-2.6965975e-07
-2.0217282e-07
-1.1339544e-07
-1.9557121e-08
5.1506901e-08
1.0291829e-07
1.3547061e-07
1.3531217e-07
1.3195085e-07
1.704923e-07
2.1973749e-07
1.8650628e-07
-1.8943609e-09
-2.227106e-07
-3.0346435e-07
-1.3409668e-07
-1.0828602e-07
-6.858631e-08
-2.584491e-08
1.165114e-08
4.165875e-08
6.4759121e-08
7.7139616e-08
8.5998668e-08
9.9909941e-08
1.0867566e-07
7.86566e-08
-1.5771552e-10
-8.8621707e-08
-1.3412917e-07
-6.7014566e-08
-5.8562788e-08
-4.0958616e-08
-2.0138767e-08
1.0366375e-10
1.7662643e-08
3.1732825e-08
4.2891546e-08
5.0948975e-08
5.6131529e-08
5.549596e-08
3.6980211e-08
1.3310882e-09
-3.7399739e-08
-6.1637385e-08
-3.5017931e-08
-3.13038e-08
-2.3583295e-08
-1.3710823e-08
-3.132881e-09
7.4186038e-09
1.678987e-08
2.4076748e-08
2.8900899e-08
3.1194769e-08
2.7317906e-08
1.90886e-08
2.1152031e-09
-1.6716901e-08
-3.0564758e-08
-1.8515354e-08
-1.6815685e-08
-1.3584242e-08
-8.9805197e-09
-3.4963874e-09
3.2075151e-09
8.665645e-09
1.2405609e-08
1.472061e-08
1.6515864e-08
1.3640402e-08
9.7441944e-09
1.3691675e-09
-8.0842865e-09
-1.5302655e-08
-8.754572e-09
-9.008995e-09
-7.7526097e-09
-5.4989096e-09
-2.6777001e-09
1.0252075e-09
4.034334e-09
6.2895254e-09
7.5946863e-09
8.2129645e-09
7.7931702e-09
4.946992e-09
7.473715e-10
-3.6273949e-09
-6.7344302e-09
-3.8260868e-09
-4.655099e-09
-4.3137802e-09
-3.2581285e-09
-1.8046097e-09
-1.559521e-10
2.1618786e-09
3.8698326e-09
4.8606157e-09
4.6051352e-09
3.7196289e-09
2.381888e-09
3.990388e-10
-1.5237345e-09
-2.944495e-09
-2.5571098e-09
-2.8471581e-09
-2.4569521e-09
-1.8013491e-09
-1.120401e-09
-4.1453075e-11
1.0577351e-09
2.1147726e-09
2.8131112e-09
2.9742234e-09
1.414279e-09
6.5317853e-10
-4.632704e-10
-1.3485461e-09
-1.9848709e-09
-2.2511e-09
-1.8015163e-09
-1.2666383e-09
-8.6359765e-10
-5.7274043e-10
4.4121275e-11
5.6939006e-10
1.2150887e-09
1.7344191e-09
2.2782977e-09
7.4730567e-10
-2.0463396e-10
-9.6202097e-10
-1.4102192e-09
-1.7695561e-09
-4.8062664e-09
-4.6829342e-09
-4.0373456e-09
-2.9767578e-09
-1.6747237e-09
-6.8873035e-10
-9.5377227e-11
3.8623066e-10
7.6873201e-10
1.0029424e-09
1.1316096e-09
2.5404829e-10
-7.6858002e-10
-2.2155248e-09
-4.0279335e-09
-9.0631805e-08
1.6399497e-07
1.5081301e-06
1.2408522e-06
2.7307353e-08
-1.1308867e-06
-2.6563081e-06
-1.3182048e-06
5.1516786e-07
-6.1375625e-07
-2.6121269e-06
-4.3844426e-06
2.5357493e-07
5.9556133e-06
3.1469192e-06
6.2828159e-06
1.537115e-06
-4.5698937e-06
-2.6447284e-06
1.5736469e-06
1.6665585e-06
6.1009871e-06
2.114091e-06
-3.6658289e-06
5.7979835e-07
4.0634215e-06
1.2468911e-05
-5.5511592e-07
-2.0205524e-05
-4.7528875e-06
4.8678853e-07
1.4814914e-07
-1.1927945e-06
-9.9290648e-07
4.1744292e-08
9.5309276e-07
2.2937838e-06
1.0197384e-06
-6.9861711e-07
3.2835688e-07
2.1052727e-06
3.8454424e-06
-3.1368456e-07
-5.4508655e-06
-2.5763727e-06
-3.3194686e-07
-2.1258207e-07
-4.5121417e-07
-4.0214864e-07
-6.2202981e-08
4.1052361e-07
8.3620714e-07
4.9169588e-07
1.4420298e-08
2.8823017e-07
9.2087331e-07
1.244616e-06
-5.0930904e-08
-1.5515606e-06
-1.1428463e-06
-2.8533704e-07
-2.0526815e-07
-2.2140115e-07
-1.7868818e-07
-3.9199451e-08
1.5987058e-07
3.1197959e-07
2.3407632e-07
1.122406e-07
1.9701635e-07
3.9757199e-07
4.4369455e-07
2.6004275e-08
-4.6114304e-07
-4.7391485e-07
-1.6250377e-07
-1.333733e-07
-1.1925975e-07
-8.774683e-08
-2.3808592e-08
5.9295124e-08
1.189383e-07
1.0993967e-07
8.5658044e-08
1.1655159e-07
1.7769154e-07
1.7504571e-07
3.1048339e-08
-1.4183007e-07
-1.9258389e-07
-8.1464183e-08
-7.6158642e-08
-6.6643669e-08
-4.7640229e-08
-1.7079898e-08
2.0477783e-08
4.4616501e-08
5.0682849e-08
5.12979e-08
6.5083514e-08
8.2588777e-08
7.4066865e-08
2.1140136e-08
-4.4909395e-08
-7.9120172e-08
-4.0239992e-08
-4.0746473e-08
-3.5914055e-08
-2.5513315e-08
-1.0707598e-08
5.6629435e-09
1.694612e-08
2.3610866e-08
2.8129647e-08
3.539049e-08
4.078949e-08
3.4694979e-08
1.3952376e-08
-1.3463561e-08
-3.255671e-08
-2.042775e-08
-2.0991971e-08
-1.906275e-08
-1.4287224e-08
-6.479609e-09
9.804015e-11
7.207174e-09
1.1438516e-08
1.3933284e-08
1.7021663e-08
2.1160116e-08
1.857449e-08
9.1676523e-09
-3.8484211e-09
-1.4282444e-08
-9.4676298e-09
-1.0308205e-08
-1.0274122e-08
-8.6859755e-09
-5.0176287e-09
-1.1813197e-10
3.8799539e-09
6.1067112e-09
7.359139e-09
8.663845e-09
1.0373213e-08
1.012798e-08
5.6478996e-09
-1.1304445e-09
-6.8148107e-09
-3.7173639e-09
-5.132776e-09
-5.5354775e-09
-4.9315112e-09
-3.6749265e-09
-4.132384e-10
1.4132791e-09
2.9002401e-09
4.1318611e-09
5.0780264e-09
4.8502882e-09
4.8979863e-09
3.1805607e-09
3.7091789e-10
-2.3134083e-09
-1.919637e-09
-2.8225759e-09
-2.8914886e-09
-2.3942221e-09
-1.6286903e-09
-1.53083e-09
-1.925164e-10
8.2129716e-10
1.6683045e-09
2.1525761e-09
2.9265205e-09
2.2335784e-09
1.4523714e-09
5.5792405e-10
-4.0157098e-10
-1.6349965e-09
-1.8112231e-09
-1.5164459e-09
-1.1718895e-09
-9.4328447e-10
-8.8978287e-10
-1.439e-10
7.4897604e-10
1.4438959e-09
1.5127472e-09
2.044957e-09
8.2593326e-10
-6.626699e-11
-7.2221393e-10
-1.34224e-09
-1.7282144e-09
-1.1202281e-09
-6.6999938e-10
-5.3963362e-10
-6.0696597e-10
-5.135877e-10
-1.5199825e-11
7.8196795e-10
1.4045777e-09
1.5409743e-09
1.7169586e-09
1.2437486e-10
-8.6287131e-10
-1.3979979e-09
-1.8961408e-09
-2.1102011e-09
-2.4802139e-09
-2.4725083e-09
-2.0252055e-09
-1.3179019e-09
-8.224434e-10
-7.8474035e-10
-6.9335987e-10
-4.8552599e-10
-7.9664263e-11
-5.1067328e-11
4.3056975e-10
5.4948069e-10
3.0933054e-11
-1.093437e-09
-9.225618e-07
-2.2462267e-06
1.01846e-06
3.9495209e-06
3.1973167e-06
4.4088711e-07
-2.3644316e-06
-1.434607e-06
3.6296468e-08
1.0306776e-07
-1.1716983e-06
-2.3344794e-06
-7.774286e-07
1.5494986e-06
9.6062252e-07
3.7472311e-06
1.1951728e-05
-1.6534243e-06
-1.2568056e-05
-7.0259633e-06
-1.8406163e-06
5.7703976e-06
3.1730322e-06
-1.9317868e-07
-9.1234778e-07
1.8152883e-06
4.7790656e-06
1.1806254e-06
-5.457615e-06
-2.7720317e-06
9.1995848e-07
2.2765034e-06
-7.5615679e-07
-3.4973356e-06
-2.8218074e-06
-3.7761344e-07
2.1727603e-06
1.3072705e-06
-1.3138437e-08
-1.0938262e-07
9.4904592e-07
1.9397253e-06
5.0442441e-07
-1.5793365e-06
-9.2254671e-07
1.5763971e-07
3.5142442e-07
-3.9897802e-07
-1.1021045e-06
-9.5051976e-07
-9.0644241e-08
6.9467472e-07
4.6143116e-07
8.878397e-09
1.4158534e-09
4.2891949e-07
7.720417e-07
3.0984984e-07
-3.5697612e-07
-2.8314655e-07
2.9982622e-09
1.3925158e-09
-2.029808e-07
-3.8077393e-07
-3.1537267e-07
-3.4938701e-08
1.9980688e-07
1.382279e-07
-4.797944e-09
8.8352363e-09
1.8118294e-07
3.1562604e-07
1.9001587e-07
-2.839002e-08
-6.5084551e-08
-1.141174e-08
-3.6068375e-08
-9.9081688e-08
-1.4347611e-07
-1.1270235e-07
-2.2428936e-08
4.7332107e-08
3.064333e-08
-1.0674049e-08
3.7472677e-09
7.5614962e-08
1.349824e-07
1.0865676e-07
3.6933325e-08
-6.2310675e-10
-3.7937011e-09
-2.337299e-08
-4.7111407e-08
-5.8487065e-08
-4.6346977e-08
-1.5696575e-08
4.6320037e-09
5.128505e-10
-9.7637295e-09
-7.2032538e-10
3.2839415e-08
6.0984622e-08
5.9297627e-08
3.5328282e-08
1.1686948e-08
1.945715e-10
-1.1619721e-08
-2.166449e-08
-2.5475328e-08
-2.1265296e-08
-1.1237774e-08
-5.562711e-09
-6.539091e-09
-7.8057105e-09
-6.7496507e-10
1.437003e-08
2.872995e-08
3.1718975e-08
2.3851338e-08
1.1967816e-08
1.6594847e-09
-4.7812966e-09
-9.6905253e-09
-1.1738811e-08
-1.0198345e-08
-7.571962e-09
-5.7989792e-09
-5.7980142e-09
-5.296705e-09
-9.1628547e-10
7.140395e-09
1.4173434e-08
1.6799028e-08
1.4449101e-08
9.6466644e-09
2.3146246e-09
-1.5671711e-09
-4.574998e-09
-6.0055937e-09
-5.6099129e-09
-4.7178355e-09
-3.8390706e-09
-3.5122283e-09
-2.8925713e-09
-5.6484167e-10
3.8196596e-09
7.5060855e-09
9.0014445e-09
8.1261173e-09
5.6945299e-09
1.7018302e-09
-6.3434889e-10
-2.4204359e-09
-3.2960775e-09
-3.670511e-09
-2.8744214e-09
-2.5681496e-09
-2.2707308e-09
-1.5869406e-09
-8.52799e-11
1.7874144e-09
4.0919909e-09
5.1951389e-09
4.7061007e-09
2.8286008e-09
1.5124208e-10
-5.6479115e-10
-1.2636857e-09
-1.6507689e-09
-1.8144959e-09
-2.0693103e-09
-2.0481786e-09
-1.7624109e-09
-1.0262835e-09
8.7220875e-11
1.1418331e-09
2.1666389e-09
2.8370393e-09
2.6156076e-09
1.6661334e-09
-2.6782797e-10
-3.7891089e-10
-6.6998096e-10
-9.1594983e-10
-1.021829e-09
-1.4768289e-09
-1.2223205e-09
-6.9709505e-10
-8.88201e-11
2.1740555e-10
8.434235e-10
8.0924717e-10
8.6832871e-10
7.1008467e-10
4.529339e-10
-1.6124317e-10
-1.8447724e-10
-4.1860038e-10
-6.716193e-10
-7.8778198e-10
-1.0574703e-09
-5.4816562e-10
-1.05185e-12
2.3313932e-10
-6.9069925e-11
3.5260482e-10
5.007235e-11
-2.5987813e-11
2.985575e-12
8.5142325e-11
1.2981129e-09
5.5793482e-10
3.0563959e-11
-4.1875936e-10
-9.1632535e-10
-1.2145388e-09
-1.5573597e-09
-1.7343768e-09
-1.6828297e-09
-1.2565306e-09
-5.5050052e-10
4.9203488e-10
1.2249812e-09
1.5950069e-09
1.6320171e-09
-1.0943645e-07
-1.1752569e-06
1.9041074e-07
3.1094152e-06
5.5608538e-06
8.3996966e-07
-3.3145619e-06
-8.3618035e-07
8.1006308e-07
1.461609e-06
6.7211228e-07
-1.0006955e-06
-2.0268097e-06
-2.8736849e-06
-1.308192e-06
-4.7772835e-06
3.9916431e-06
2.540539e-06
-6.0890076e-06
-2.2848545e-05
-1.2176081e-06
1.7552182e-05
3.1200697e-06
3.3885116e-07
-1.0182351e-06
-1.3056288e-06
9.5353564e-07
2.414695e-06
6.8330334e-06
-4.9226389e-07
-2.3118617e-07
1.0215204e-06
-6.369276e-08
-2.7200109e-06
-5.1193132e-06
-6.3654951e-07
3.3508628e-06
1.0348571e-06
-3.9436673e-07
-1.012124e-06
-4.8245179e-07
7.8105045e-07
1.4917016e-06
2.2137476e-06
7.6212017e-07
2.850827e-07
2.794284e-07
-2.3190399e-07
-9.8678726e-07
-1.3099511e-06
-2.9083152e-07
5.862234e-07
1.2832433e-07
-4.0926719e-07
-6.1104865e-07
-2.5147015e-07
3.8818951e-07
8.0257994e-07
9.885161e-07
6.344482e-07
2.2602875e-07
1.0045303e-07
-1.2042471e-07
-3.4328583e-07
-3.8439949e-07
-1.3969785e-07
4.2883909e-08
-9.1497354e-08
-2.8238394e-07
-3.2973832e-07
-1.3811939e-07
1.7460788e-07
4.0601635e-07
4.912715e-07
3.8597675e-07
1.3582182e-07
5.1478233e-08
-4.5726826e-08
-1.2029631e-07
-1.2966555e-07
-7.3679778e-08
-4.6449754e-08
-1.0122094e-07
-1.6901461e-07
-1.7072939e-07
-7.4129133e-08
7.7014896e-08
2.000946e-07
2.4868465e-07
2.1257132e-07
7.7197184e-08
3.2181978e-08
-1.3220315e-08
-4.2887251e-08
-4.8962142e-08
-4.2066455e-08
-4.4805042e-08
-6.954792e-08
-9.4075071e-08
-8.820232e-08
-3.8056241e-08
3.4864629e-08
9.7186923e-08
1.2463646e-07
1.1261402e-07
4.3989142e-08
2.1101438e-08
-2.7341e-11
-1.4601305e-08
-2.1033707e-08
-2.3479601e-08
-3.148694e-08
-4.3327596e-08
-5.166117e-08
-4.5022073e-08
-1.9999351e-08
1.5931966e-08
4.6933602e-08
6.266713e-08
5.9915284e-08
2.3571542e-08
1.3334516e-08
3.3004408e-09
-4.7941765e-09
-1.0551916e-08
-1.4140956e-08
-1.9455185e-08
-2.5006945e-08
-2.7626061e-08
-2.2808045e-08
-1.0319397e-08
7.1898007e-09
2.3320612e-08
3.2671647e-08
3.2640404e-08
1.2164049e-08
7.3538813e-09
1.9753109e-09
-2.3899755e-09
-5.2483808e-09
-9.6263298e-09
-1.1084764e-08
-1.3327927e-08
-1.4066611e-08
-1.1587096e-08
-4.581643e-09
4.0647468e-09
1.2003178e-08
1.6716781e-08
1.725042e-08
6.665918e-09
4.0910794e-09
1.114209e-09
-1.3797154e-09
-2.7338239e-09
-4.933269e-09
-6.2764285e-09
-7.2626071e-09
-7.1598158e-09
-5.3402004e-09
-1.8216201e-09
2.6092917e-09
6.3969988e-09
8.3039645e-09
8.2811035e-09
3.3876278e-09
2.4865775e-09
1.2126539e-09
-2.0370062e-10
-1.7223425e-09
-2.0430645e-09
-3.63771e-09
-4.2273979e-09
-3.8143087e-09
-2.2176256e-09
-6.9917498e-10
1.521296e-09
3.4945745e-09
4.4278693e-09
4.185764e-09
1.9528562e-09
1.3523425e-09
5.2910197e-10
-1.953836e-10
-7.8531189e-10
-1.8499705e-09
-2.0912449e-09
-1.9678166e-09
-1.8651128e-09
-1.8101341e-09
-7.7239105e-10
3.6612871e-10
1.3931564e-09
2.2591965e-09
2.9722784e-09
1.5177607e-09
6.6151852e-10
-4.2633075e-11
-4.6250305e-10
-5.2570582e-10
-1.576569e-09
-1.045801e-09
-7.9238015e-10
-1.1805547e-09
-2.1149702e-09
-1.3053296e-09
-3.1610669e-10
4.541905e-10
1.3431936e-09
2.3190488e-09
4.1270222e-09
3.4095843e-09
2.5596794e-09
1.352724e-09
-1.3776871e-10
-1.1517865e-09
-2.0372299e-09
-2.638837e-09
-2.6851974e-09
-2.0648227e-09
-9.7160654e-10
3.6018137e-10
1.6506446e-09
2.8177703e-09
3.696348e-09
-1.0591507e-06
-1.6145557e-07
1.920751e-07
6.2581505e-07
4.2273689e-07
3.3271698e-07
1.0167438e-06