/*--------------------------------*- C++ -*----------------------------------*\
| =========                 |                                                 |
| \\      /  F ield         | OpenFOAM: The Open Source CFD Toolbox           |
|  \\    /   O peration     | Version:  3.0.1                                 |
|   \\  /    A nd           | Web:      www.OpenFOAM.org                      |
|    \\/     M anipulation  |                                                 |
\*---------------------------------------------------------------------------*/
FoamFile
{
    version     2.0;
    format      ascii;
    class       volScalarField;
    location    "0.1";
    object      sigmaxy;
}
// * * * * * * * * * * * * * * * * * * * * * * * * * * * * * * * * * * * * * //

dimensions      [0 2 -2 0 0 0 0];

internalField   nonuniform List<scalar> 
3375
(
-0.02734126
-0.0093884585
-0.018947313
-0.031268786
-0.035122999
-0.026660935
-0.075067128
-0.10589132
-0.070318062
-0.033328889
-0.057191695
-0.049626857
-0.65082457
-0.010844979
-0.0078642008
-1.4149799e-05
-6.7686519e-06
-7.6273103e-06
-5.1142022e-06
-5.5276998e-06
-8.6944034e-06
-2.0193333e-05
-2.539035e-05
-2.1099563e-05
-1.763263e-05
-3.16125e-05
-1.8762395e-06
-0.00011828812
4.0631146e-06
-2.2291358e-05
-4.4366846e-06
-3.2593262e-06
-1.4727826e-06
1.2212479e-06
1.4786909e-06
-7.1510052e-07
-1.6512913e-06
-1.7175332e-06
-2.9526352e-06
-4.1192905e-06
-3.1881343e-06
6.1312348e-06
1.4104359e-05
5.0388024e-06
-4.5370526e-06
-2.0955956e-06
-1.902027e-06
-9.2402881e-07
2.4017984e-07
3.3270319e-07
-5.4965294e-07
-1.2141975e-06
-1.5281651e-06
-1.8368521e-06
-1.6855807e-06
-1.757705e-07
3.4395723e-06
5.7603614e-06
2.9851965e-06
-8.4616213e-07
-8.7277204e-07
-1.0014994e-06
-6.2534923e-07
-1.7306813e-07
-1.3586944e-07
-4.8854622e-07
-8.32958e-07
-1.0130395e-06
-1.0137013e-06
-6.3261294e-07
3.9061148e-07
1.9295424e-06
2.7150275e-06
1.7036453e-06
5.0589393e-08
-3.2089246e-07
-5.0518376e-07
-4.1824234e-07
-2.7209513e-07
-2.6573067e-07
-4.0652876e-07
-5.5774838e-07
-6.1767739e-07
-5.2726395e-07
-2.0228939e-07
3.9798913e-07
1.0948674e-06
1.3944368e-06
9.7924768e-07
2.2711121e-07
-9.3758992e-08
-2.5217093e-07
-2.734649e-07
-2.4664862e-07
-2.575026e-07
-3.1416485e-07
-3.6780516e-07
-3.669533e-07
-2.6749273e-07
-3.8853808e-08
2.9969507e-07
6.3188227e-07
7.5810985e-07
5.7292578e-07
2.1620294e-07
-1.100707e-08
-1.2565576e-07
-1.7507363e-07
-1.9063555e-07
-2.0630601e-07
-2.2889075e-07
-2.4174356e-07
-2.177581e-07
-1.3418502e-07
1.4256302e-08
2.0505469e-07
3.7287089e-07
4.3102865e-07
3.4334946e-07
1.6469546e-07
1.3172626e-08
-6.3954305e-08
-1.1040024e-07
-1.3542521e-07
-1.5203717e-07
-1.6199503e-07
-1.5807888e-07
-1.2978101e-07
-6.7997239e-08
2.597167e-08
1.3488226e-07
2.2369258e-07
2.5414583e-07
2.1157484e-07
1.1622927e-07
1.7846546e-08
-3.3914623e-08
-6.971454e-08
-9.2060539e-08
-1.0552646e-07
-1.1070273e-07
-1.0278244e-07
-7.7842625e-08
-3.4799464e-08
2.3516745e-08
8.6881385e-08
1.3624406e-07
1.5289445e-07
1.3087033e-07
7.9089897e-08
1.6200755e-08
-1.751251e-08
-4.3660586e-08
-6.1104684e-08
-7.0658004e-08
-7.323936e-08
-6.6340153e-08
-4.7400486e-08
-1.738718e-08
1.886752e-08
5.5406084e-08
8.354699e-08
9.2600178e-08
7.956755e-08
5.1113884e-08
1.1516276e-08
-8.72896e-09
-2.6637818e-08
-3.9312066e-08
-4.6905029e-08
-4.8100019e-08
-4.2235878e-08
-2.9390875e-08
-9.184463e-09
1.4362226e-08
3.5696951e-08
5.1421397e-08
5.6805542e-08
4.8957136e-08
3.173558e-08
6.7495377e-09
-5.899006e-09
-1.6706005e-08
-2.4465024e-08
-2.9625004e-08
-3.0490141e-08
-2.6490447e-08
-1.838441e-08
-5.7877825e-09
9.2887775e-09
2.3128157e-08
3.2263483e-08
3.4975248e-08
3.0994259e-08
2.0448357e-08
3.3004722e-09
-4.0954814e-09
-9.6466787e-09
-1.3641389e-08
-1.6711811e-08
-1.7711509e-08
-1.5361541e-08
-1.0416912e-08
-3.4332516e-09
5.2200245e-09
1.3811086e-08
1.8721341e-08
1.9664427e-08
1.807816e-08
1.2223063e-08
1.2102089e-08
-4.1968486e-09
-1.9677876e-08
-3.1409767e-08
-3.6739451e-08
-3.5763791e-08
-2.9024592e-08
-1.723104e-08
-2.9935699e-09
1.1440806e-08
2.406283e-08
3.2835072e-08
3.6432642e-08
3.4282311e-08
2.5881186e-08
-0.10424004
-0.12770338
-0.037137319
-0.020346124
-0.31368372
-0.017698127
-0.034499004
-0.011545264
-0.020080454
-0.025956762
-0.011903348
-0.025866845
-0.080596202
-0.0023785922
-0.035744018
-3.0427205e-05
-3.272516e-05
-2.0250034e-05
-6.5125121e-06
-6.2722237e-05
-2.5364599e-06
-1.6136097e-05
-6.3710475e-06
-8.5307588e-06
-1.2335998e-05
-1.4072571e-05
-2.5359215e-06
5.6671617e-06
1.0487235e-05
-1.8300327e-05
-3.7770859e-06
-2.920923e-06
-3.3766506e-06
-3.206402e-07
3.1241536e-06
5.1043745e-07
-2.0806486e-06
-2.1711905e-06
-2.7046669e-06
-3.6984627e-06
-3.6107131e-06
3.7243557e-06
1.2126603e-05
7.2423511e-06
-2.1212338e-06
-1.7919846e-06
-1.8690233e-06
-1.4947121e-06
-3.8395054e-07
4.6093332e-07
-1.5735103e-07
-1.0050844e-06
-1.3735816e-06
-1.6710491e-06
-1.7417712e-06
-7.3207835e-07
2.5748744e-06
5.5011379e-06
3.7652186e-06
-8.1591725e-08
-7.115566e-07
-9.7975329e-07
-8.0860199e-07
-4.0787259e-07
-1.690392e-07
-3.5456012e-07
-6.6826761e-07
-8.6597875e-07
-9.2884814e-07
-7.0726761e-07
1.0458414e-07
1.5883853e-06
2.6291722e-06
1.9455351e-06
3.3406908e-07
-2.410447e-07
-4.842665e-07
-4.7284627e-07
-3.5168455e-07
-2.8649416e-07
-3.539415e-07
-4.715733e-07
-5.3708629e-07
-4.8967343e-07
-2.4779881e-07
2.6406946e-07
9.4662579e-07
1.341914e-06
1.0478005e-06
3.3599981e-07
-5.7356008e-08
-2.3571171e-07
-2.8484154e-07
-2.6988118e-07
-2.6285216e-07
-2.9072525e-07
-3.271284e-07
-3.2825552e-07
-2.5260609e-07
-6.4600083e-08
2.3642294e-07
5.6372947e-07
7.2685811e-07
5.9015912e-07
2.5678829e-07
6.6123005e-09
-1.1476062e-07
-1.7446558e-07
-1.9500757e-07
-2.0492587e-07
-2.1715534e-07
-2.226869e-07
-2.0027046e-07
-1.2952802e-07
2.91951e-10
1.7487332e-07
3.4008792e-07
4.1275463e-07
3.4465703e-07
1.7952319e-07
2.2785866e-08
-5.7213557e-08
-1.0810531e-07
-1.3464523e-07
-1.4860273e-07
-1.5496257e-07
-1.4934975e-07
-1.229127e-07
-6.7236206e-08
1.8743145e-08
1.2089664e-07
2.0781778e-07
2.4274538e-07
2.0830782e-07
1.2173142e-07
2.2354393e-08
-2.9726302e-08
-6.7394277e-08
-9.0227395e-08
-1.0324133e-07
-1.0721059e-07
-9.8884547e-08
-7.5591025e-08
-3.50304e-08
1.9774311e-08
8.0206855e-08
1.2858733e-07
1.4660979e-07
1.2867703e-07
8.109617e-08
1.7806904e-08
-1.5410859e-08
-4.1655159e-08
-5.9438596e-08
-6.958755e-08
-7.1961569e-08
-6.4692482e-08
-4.6698559e-08
-1.8482239e-08
1.6269956e-08
5.1991899e-08
7.9880769e-08
9.0161254e-08
7.9476329e-08
5.2339905e-08
1.2506981e-08
-7.9969895e-09
-2.5430664e-08
-3.8203321e-08
-4.5534347e-08
-4.7073675e-08
-4.1861958e-08
-2.9234748e-08
-1.0303736e-08
1.2437179e-08
3.3754373e-08
4.9550128e-08
5.5686321e-08
4.8895455e-08
3.2809001e-08
7.841726e-09
-4.6408034e-09
-1.556697e-08
-2.3667947e-08
-2.8561274e-08
-2.9700553e-08
-2.6160458e-08
-1.7867812e-08
-5.8232938e-09
8.2182518e-09
2.1490157e-08
3.0811625e-08
3.3759939e-08
2.9702606e-08
2.0164804e-08
4.1455408e-09
-2.8301063e-09
-8.7831938e-09
-1.3241743e-08
-1.6065644e-08
-1.6787626e-08
-1.4567157e-08
-9.6894083e-09
-2.9784275e-09
4.8116137e-09
1.2347935e-08
1.7229768e-08
1.8456689e-08
1.6558722e-08
1.1393038e-08
1.157813e-08
-4.0997498e-09
-1.9016667e-08
-3.0399801e-08
-3.5638649e-08
-3.432602e-08
-2.7624011e-08
-1.6631166e-08
-3.0959089e-09
1.079263e-08
2.2961959e-08
3.1589833e-08
3.5341119e-08
3.3439519e-08
2.5128783e-08
-0.007449575
-0.0012409261
-0.0053884524
-0.029878242
-0.044192519
-0.006460584
-0.034999038
-0.00092734269
-0.001060431
-0.074419219
-0.0068643852
-0.037343025
-0.67886775
-0.64682199
-0.0070888929
-2.612155e-05
-8.3963203e-06
-7.1833939e-06
-8.5903348e-06
-6.7277007e-06
1.3875586e-06
-9.6450431e-06
-4.240613e-06
-3.1314919e-06
-2.4503044e-05
-2.7597024e-05
-1.9506142e-05
-0.00011744416
-0.00011607292
-1.7700421e-05
-6.9887541e-06
-4.3811324e-06
-3.0608448e-06
-1.1076923e-06
1.1063325e-06
9.6318803e-07
-6.2421989e-07
-1.6758228e-06
-2.233001e-06
-4.1709444e-06
-6.6750763e-06
1.1944599e-06
1.6265634e-05
1.3482326e-05
-2.1932505e-06
-2.2272572e-06
-2.1394471e-06
-1.6072947e-06
-7.862759e-07
-7.2048025e-10
2.188605e-09
-5.363705e-07
-1.0071162e-06
-1.4458488e-06
-1.9579964e-06
-1.5454857e-06
1.9259222e-06
6.1497309e-06
5.0008262e-06
1.7512037e-07
-7.1835416e-07
-1.0078342e-06
-8.7290668e-07
-5.6361866e-07
-2.920466e-07
-2.8561439e-07
-4.7685111e-07
-6.7464e-07
-8.2731107e-07
-7.9622077e-07
-1.7187319e-07
1.34162e-06
2.6827731e-06
2.1959801e-06
4.668976e-07
-2.0667175e-07
-4.7013682e-07
-4.9110908e-07
-4.010497e-07
-3.1558341e-07
-3.1707293e-07
-3.8476978e-07
-4.4613955e-07
-4.4566661e-07
-2.8826894e-07
1.4874465e-07
8.2974936e-07
1.3074794e-06
1.0906457e-06
3.8984947e-07
-3.492044e-08
-2.190079e-07
-2.8399347e-07
-2.7978882e-07
-2.6420671e-07
-2.6855081e-07
-2.8557642e-07
-2.8649056e-07
-2.3376191e-07
-8.5983155e-08
1.8103422e-07
5.0384783e-07
6.9220657e-07
5.8999792e-07
2.7519368e-07
1.8803035e-08
-1.0347847e-07
-1.6883232e-07
-1.925977e-07
-1.9958925e-07
-2.0338611e-07
-2.0198943e-07
-1.8167337e-07
-1.2271224e-07
-1.122815e-08
1.4719805e-07
3.0763649e-07
3.8910471e-07
3.373287e-07
1.8541607e-07
2.8646289e-08
-5.1039584e-08
-1.0282288e-07
-1.2999633e-07
-1.4279862e-07
-1.466264e-07
-1.3937893e-07
-1.1476397e-07
-6.5267082e-08
1.227903e-08
1.0641946e-07
1.8989364e-07
2.2881971e-07
2.0273254e-07
1.2390312e-07
2.4706204e-08
-2.6272432e-08
-6.345056e-08
-8.6361464e-08
-9.8910656e-08
-1.0231489e-07
-9.4037251e-08
-7.1935965e-08
-3.457765e-08
1.553282e-08
7.2083737e-08
1.1931455e-07
1.3931889e-07
1.2545241e-07
8.1452267e-08
1.8813645e-08
-1.3197442e-08
-3.8977743e-08
-5.6720761e-08
-6.6910774e-08
-6.9184861e-08
-6.2067716e-08
-4.5049013e-08
-1.8666497e-08
1.35578e-08
4.7655723e-08
7.53176e-08
8.6295325e-08
7.730561e-08
5.1829108e-08
1.3323872e-08
-6.7047935e-09
-2.3836163e-08
-3.6529287e-08
-4.3819716e-08
-4.5388946e-08
-4.0416937e-08
-2.8440932e-08
-1.0769242e-08
1.1052391e-08
3.175506e-08
4.7012991e-08
5.3271064e-08
4.7092736e-08
3.23979e-08
8.3731182e-09
-3.74437e-09
-1.4638227e-08
-2.2753244e-08
-2.7395996e-08
-2.8436693e-08
-2.5158175e-08
-1.7288681e-08
-5.9386349e-09
7.4804483e-09
2.0196899e-08
2.9182589e-08
3.215533e-08
2.8313702e-08
1.9651934e-08
4.3461745e-09
-2.4133762e-09
-8.3544307e-09
-1.2763071e-08
-1.5278141e-08
-1.5777155e-08
-1.3782862e-08
-9.2842467e-09
-2.9773136e-09
4.3987548e-09
1.1514061e-08
1.6258968e-08
1.7529083e-08
1.5651231e-08
1.0932326e-08
1.145706e-08
-3.6027256e-09
-1.8020157e-08
-2.9040625e-08
-3.410716e-08
-3.2668766e-08
-2.6147894e-08
-1.5787914e-08
-3.0019103e-09
1.0000634e-08
2.1390249e-08
2.966974e-08
3.3497695e-08
3.2026453e-08
2.4335321e-08
-0.046456428
-0.035841264
-0.022378578
-0.022618507
-0.010610644
-0.29313171
-0.093749322
-0.016334158
-0.21071214
-0.0410859
-0.030708013
-0.028308856
-0.025052611
-0.13222382
-0.0010406647
-2.3253352e-05
-1.2639432e-05
-8.433156e-06
-1.438403e-05
-4.6652993e-06
-6.1311096e-05
-2.2222313e-05
-6.4359589e-06
-4.7546536e-05
-1.7708609e-05
-2.5388807e-05
-8.3095056e-06
2.0718966e-05
-1.2585587e-05
-8.3639769e-06
-5.0864253e-06
-3.114812e-06
-2.052648e-06
-2.4567049e-06
-6.7879988e-07
1.7400727e-06
4.8674181e-07
-1.1347991e-08
-5.6770483e-07
-4.5228377e-06
-6.023344e-06
2.0663188e-06
1.2714133e-05
9.2666372e-06
-1.8224024e-06
-1.8919446e-06
-1.7459662e-06
-1.2922286e-06
-1.0614284e-06
-4.96507e-07
3.5157375e-08
-1.0637892e-07
-3.3790174e-07
-9.8209448e-07
-2.0536433e-06
-1.6555994e-06
1.8373634e-06
5.4763664e-06
4.1883932e-06
8.6396475e-08
-6.2539735e-07
-8.6432272e-07
-7.6539615e-07
-6.1852293e-07
-4.1662273e-07
-2.7564941e-07
-3.0550615e-07
-4.2520952e-07
-6.723544e-07
-8.2866271e-07
-2.8737775e-07
1.1997195e-06
2.4689255e-06
1.991229e-06
4.2514775e-07
-1.6796496e-07
-4.089695e-07
-4.4491311e-07
-4.0231246e-07
-3.3564595e-07
-2.965394e-07
-3.0831957e-07
-3.473374e-07
-3.8758933e-07
-3.0517464e-07
7.7666568e-08
7.3313127e-07
1.2045784e-06
1.0145645e-06
3.7482559e-07
-1.7198733e-08
-1.8987886e-07
-2.5924031e-07
-2.6886671e-07
-2.5767764e-07
-2.4903656e-07
-2.4786043e-07
-2.4430824e-07
-2.1085704e-07
-9.7359968e-08
1.3976758e-07
4.4714181e-07
6.355469e-07
5.5218139e-07
2.6764681e-07
2.6606285e-08
-8.870488e-08
-1.5420098e-07
-1.816183e-07
-1.8951369e-07
-1.8877398e-07
-1.8217985e-07
-1.6300444e-07
-1.1419753e-07
-1.9117285e-08
1.2376286e-07
2.7549893e-07
3.5788666e-07
3.1712001e-07
1.804362e-07
3.1553238e-08
-4.3769005e-08
-9.3901105e-08
-1.2165324e-07
-1.3480754e-07
-1.372491e-07
-1.2883681e-07
-1.058998e-07
-6.206414e-08
7.2526253e-09
9.2845615e-08
1.7160214e-07
2.123487e-07
1.9207376e-07
1.2050467e-07
2.5751264e-08
-2.2544927e-08
-5.8037702e-08
-8.0951805e-08
-9.3333941e-08
-9.629108e-08
-8.8206647e-08
-6.7304765e-08
-3.3357806e-08
1.196351e-08
6.3940365e-08
1.0926638e-07
1.3067762e-07
1.1940542e-07
7.9024118e-08
1.9253775e-08
-1.1050685e-08
-3.586253e-08
-5.3324116e-08
-6.3199814e-08
-6.5437841e-08
-5.8709272e-08
-4.262044e-08
-1.8234339e-08
1.1161151e-08
4.3148472e-08
7.0090297e-08
8.1216464e-08
7.348148e-08
5.0087398e-08
1.3432383e-08
-5.609043e-09
-2.2256016e-08
-3.4400818e-08
-4.1550518e-08
-4.3248348e-08
-3.8465047e-08
-2.7313221e-08
-1.087097e-08
9.946321e-09
2.9806712e-08
4.4230479e-08
5.0256106e-08
4.4800469e-08
3.124151e-08
8.1330395e-09
-3.6726331e-09
-1.4078287e-08
-2.1555853e-08
-2.5869432e-08
-2.6902373e-08
-2.3990828e-08
-1.6916959e-08
-6.3417465e-09
6.9208627e-09
1.9433011e-08
2.786698e-08
3.0724014e-08
2.7200884e-08
1.9049318e-08
3.9667235e-09
-2.7579835e-09
-8.1529925e-09
-1.2044039e-08
-1.43136e-08
-1.4798902e-08
-1.3157359e-08
-9.2100348e-09
-3.3270875e-09
4.0804813e-09
1.1340724e-08
1.5889966e-08
1.69364e-08
1.5009133e-08
1.0538571e-08
1.1829903e-08
-2.4633766e-09
-1.6657938e-08
-2.7608099e-08
-3.2556672e-08
-3.0964799e-08
-2.4544598e-08
-1.462472e-08
-2.5545845e-09
9.2157923e-09
1.9353928e-08
2.7053573e-08
3.0962832e-08
3.0104276e-08
2.3454482e-08
-0.012641035
-0.086531699
-0.16535106
-0.050068769
-0.067489743
-0.0070783474
-0.02133826
-0.45356742
-0.032170774
-0.0029586728
-0.020387222
-0.0386132
-0.88483962
-0.0033086435
-0.062081663
-1.6288411e-05
-2.2311382e-05
-3.4856133e-05
-1.4113302e-05
-2.2165542e-05
-1.3129128e-05
-3.8276113e-06
-8.9333316e-05
-6.6757155e-06
-2.2554951e-05
-3.5955576e-05
-1.5824538e-06
-0.00016303121
1.0416357e-05
-4.1327991e-05
-5.0334675e-06
-1.7382413e-06
4.375768e-07
-1.093779e-06
-1.9947801e-06
-2.1629959e-06
7.3557875e-07
4.3149337e-06
-6.6107049e-07
-6.9009797e-06
-7.626467e-06
3.9223943e-06
1.6044604e-05
6.573965e-06
-4.9363636e-06
-1.7423044e-06
-1.1777345e-06
-5.2731087e-07
-7.194128e-07
-8.517924e-07
-6.6805347e-07
1.1268488e-08
5.0342071e-07
-8.3462972e-07
-2.3817076e-06
-1.8596108e-06
2.0121792e-06
5.5001694e-06
3.2900655e-06
-5.545765e-07
-5.4142814e-07
-6.3270701e-07
-4.9905561e-07
-4.9427269e-07
-4.8255958e-07
-3.9032758e-07
-2.3635783e-07
-2.1201508e-07
-5.8017358e-07
-8.5893319e-07
-3.5127625e-07
1.1061037e-06
2.2538092e-06
1.6596578e-06
2.5953596e-07
-1.3027713e-07
-3.1126587e-07
-3.3922212e-07
-3.43485e-07
-3.3033295e-07
-2.9567097e-07
-2.62881e-07
-2.739202e-07
-3.4365499e-07
-3.0791861e-07
3.481421e-08
6.4373393e-07
1.0667129e-06
8.7691452e-07
3.1645328e-07
-3.58145e-10
-1.4943531e-07
-2.1390323e-07
-2.3650215e-07
-2.3836988e-07
-2.2982671e-07
-2.2013023e-07
-2.1281537e-07
-1.9165086e-07
-1.011144e-07
1.1115339e-07
3.9150779e-07
5.6178172e-07
4.8743553e-07
2.4222786e-07
3.2821465e-08
-7.0864305e-08
-1.3271455e-07
-1.6267815e-07
-1.7369765e-07
-1.7286201e-07
-1.6548683e-07
-1.4781689e-07
-1.0584165e-07
-2.3626181e-08
1.0520669e-07
2.440427e-07
3.1990487e-07
2.860283e-07
1.6758418e-07
3.2616738e-08
-3.5620112e-08
-8.1989497e-08
-1.1040792e-07
-1.2514111e-07
-1.2778694e-07
-1.1887886e-07
-9.6860185e-08
-5.7792786e-08
4.1696595e-09
8.093621e-08
1.5345919e-07
1.9354469e-07
1.7675884e-07
1.1299208e-07
2.5802294e-08
-1.8625378e-08
-5.14085e-08
-7.4757944e-08
-8.7604201e-08
-9.0274756e-08
-8.1708226e-08
-6.1667373e-08
-3.2028344e-08
9.9261335e-09
5.7402293e-08
9.895282e-08
1.2087988e-07
1.1067322e-07
7.4438087e-08
1.9437384e-08
-9.160551e-09
-3.2957347e-08
-4.9602565e-08
-5.8954674e-08
-6.109182e-08
-5.4813055e-08
-4.0081565e-08
-1.8015324e-08
9.4947758e-09
3.9678156e-08
6.4782506e-08
7.5393223e-08
6.8416169e-08
4.7474688e-08
1.2820229e-08
-5.0798631e-09
-2.1065731e-08
-3.1849334e-08
-3.8629785e-08
-4.0769591e-08
-3.659056e-08
-2.6566733e-08
-1.0772573e-08
9.0185127e-09
2.8035729e-08
4.1860427e-08
4.7284605e-08
4.2620404e-08
2.9684263e-08
7.1276362e-09
-4.4988915e-09
-1.3810693e-08
-1.9957061e-08
-2.3996393e-08
-2.5384936e-08
-2.3136772e-08
-1.7077203e-08
-7.0084545e-09
6.7420822e-09
1.9575487e-08
2.7272429e-08
2.9594625e-08
2.6251008e-08
1.8307135e-08
3.1898548e-09
-3.6875933e-09
-8.0229953e-09
-1.1079205e-08
-1.3288873e-08
-1.4033491e-08
-1.2886456e-08
-9.5496442e-09
-3.9666682e-09
4.1735545e-09
1.2237226e-08
1.6156707e-08
1.6389766e-08
1.4249652e-08
1.0118165e-08
1.2739818e-08
-7.3567253e-10
-1.5275172e-08
-2.6613451e-08
-3.1409649e-08
-2.9304407e-08
-2.2714622e-08
-1.3037021e-08
-1.6229956e-09
8.5712964e-09
1.6845469e-08
2.3792912e-08
2.8044452e-08
2.8052844e-08
2.2666199e-08
-0.033589596
-0.030051136
-0.037855583
-0.0086849888
-0.016438343
-0.041374667
-0.020361821
-0.056584186
-0.017894165
-0.0051876846
-0.083539201
-0.0032341566
-0.29590517
-0.028190421
-0.015540249
-1.6553762e-05
-7.4921535e-06
-3.2581184e-06
-2.9236906e-06
-8.701075e-06
-1.3582488e-05
-4.1939298e-06
-7.8331474e-06
-7.0133068e-06
-1.0966877e-05
-3.2791257e-05
3.7618651e-06
-4.5658427e-05
3.1954595e-07
-1.6716921e-05
-3.5887766e-06
-8.4112893e-07
1.646326e-06
-2.206182e-07
-1.8462477e-06
-1.4618076e-06
2.0602951e-07
1.545837e-06
-1.4056259e-06
-4.3758599e-06
-4.0078787e-06
2.8714538e-06
9.908802e-06
4.4052854e-06
-2.8791901e-06
-1.2604494e-06
-6.7325928e-07
8.966914e-08
-2.9892273e-07
-7.6719576e-07
-6.4249718e-07
-1.5316291e-07
5.0041535e-08
-9.1245776e-07
-1.7901116e-06
-1.1529474e-06
1.5666103e-06
3.868079e-06
2.3741262e-06
-2.9753305e-07
-3.7634975e-07
-4.0279105e-07
-2.3514535e-07
-3.0348087e-07
-4.1240336e-07
-3.7499596e-07
-2.5898528e-07
-2.6705754e-07
-5.5451113e-07
-7.0783616e-07
-2.3580525e-07
8.8434875e-07
1.7157818e-06
1.2811486e-06
2.480824e-07
-7.5119142e-08
-2.1410096e-07
-2.2750169e-07
-2.5380442e-07
-2.8025578e-07
-2.6989054e-07
-2.4754476e-07
-2.6348547e-07
-3.192466e-07
-2.6841969e-07
3.4031057e-08
5.2870742e-07
8.5926659e-07
7.1488395e-07
2.8248002e-07
1.6676638e-08
-1.0652277e-07
-1.6359303e-07
-1.9353925e-07
-2.0822051e-07
-2.0575704e-07
-2.001323e-07
-1.9875e-07
-1.7975844e-07
-9.1999743e-08
9.608173e-08
3.3097904e-07
4.73078e-07
4.1515516e-07
2.1630253e-07
3.678503e-08
-5.342864e-08
-1.0962906e-07
-1.4037257e-07
-1.5442712e-07
-1.5588221e-07
-1.5102703e-07
-1.3690092e-07
-9.9803129e-08
-2.351085e-08
9.29773e-08
2.1306382e-07
2.7873474e-07
2.5155769e-07
1.5186294e-07
3.3121432e-08
-2.8306695e-08
-7.123242e-08
-9.9183271e-08
-1.1312974e-07
-1.1630487e-07
-1.0971852e-07
-8.9317375e-08
-5.3395747e-08
2.11629e-10
7.0977853e-08
1.3901905e-07
1.7389493e-07
1.5949088e-07
1.0387286e-07
2.4766243e-08
-1.5131526e-08
-4.5831154e-08
-6.8634028e-08
-8.1187014e-08
-8.4271637e-08
-7.6904741e-08
-5.7697434e-08
-2.8774944e-08
8.30139e-09
5.1247343e-08
9.113989e-08
1.1139536e-07
1.02623e-07
6.8959248e-08
1.8327831e-08
-7.9302562e-09
-3.0201629e-08
-4.6130188e-08
-5.5560554e-08
-5.7880734e-08
-5.1929829e-08
-3.8219008e-08
-1.7096042e-08
9.9740312e-09
3.7557629e-08
5.9833475e-08
7.0320385e-08
6.4347066e-08
4.4587818e-08
1.2380641e-08
-5.1374029e-09
-2.0232136e-08
-3.0270733e-08
-3.620464e-08
-3.7949246e-08
-3.420814e-08
-2.5003495e-08
-1.0614288e-08
7.4085713e-09
2.6295198e-08
4.0169451e-08
4.4751898e-08
4.0189431e-08
2.8424888e-08
6.481639e-09
-4.4946265e-09
-1.3381723e-08
-1.9108797e-08
-2.2544212e-08
-2.3821318e-08
-2.1999731e-08
-1.6209195e-08
-6.411868e-09
5.1144265e-09
1.7865969e-08
2.7026171e-08
2.8702493e-08
2.5393192e-08
1.7387582e-08
2.538746e-09
-3.5466552e-09
-7.674482e-09
-1.0538655e-08
-1.2465867e-08
-1.3228747e-08
-1.2409823e-08
-9.2184585e-09
-3.4123013e-09
3.0148265e-09
1.0852546e-08
1.6319902e-08
1.6272285e-08
1.410089e-08
9.3957912e-09
1.2837601e-08
-3.7147386e-11
-1.417086e-08
-2.5388809e-08
-3.0269886e-08
-2.826981e-08
-2.1798825e-08
-1.2382834e-08
-1.3429631e-09
8.9448013e-09
1.6205589e-08
2.1850237e-08
2.6090026e-08
2.6113925e-08
2.1618955e-08
-0.01963131
-0.015093847
-0.43011789
-0.0064228123
-0.045010061
-0.0088424109
-0.016083195
-0.025589102
-0.022859895
-0.0093105602
-0.0092667988
-0.026927304
-0.045400303
-0.072593245
-0.052283123
-1.8950425e-05
-5.1369628e-06
-8.5377205e-05
1.4651523e-06
-2.1158974e-05
-5.1915068e-06
-4.9172088e-06
-5.5516458e-06
-7.3891829e-06
-6.8902075e-06
-6.7941706e-06
-5.8598866e-06
-4.1714943e-06
-1.1960142e-05
-1.3358366e-05
-3.3574806e-06
-7.1974168e-07
4.1621148e-06
1.0265085e-06
-2.0507741e-06
-1.0748819e-06
-3.3181417e-07
-2.150205e-07
-1.4753775e-06
-2.4992363e-06
-1.8047463e-06
1.2208887e-06
4.022948e-06
3.0652651e-06
-1.8933575e-08
-8.8977422e-07
-4.5278754e-07
6.3156669e-07
1.2565543e-07
-5.5797016e-07
-4.2654496e-07
-2.777597e-07
-4.225963e-07
-9.4768681e-07
-1.2081379e-06
-5.923934e-07
9.2325348e-07
2.1212863e-06
1.6848122e-06
2.8906427e-07
-2.2443777e-07
-2.7347398e-07
-6.3702148e-08
-1.3670201e-07
-2.7524423e-07
-2.6161903e-07
-2.6428913e-07
-3.7524091e-07
-5.5272286e-07
-5.3779605e-07
-1.126816e-07
6.300742e-07
1.1517399e-06
9.676812e-07
3.2841443e-07
-2.8985597e-08
-1.5500157e-07
-1.5660642e-07
-1.7858266e-07
-2.0785754e-07
-2.1170724e-07
-2.3048711e-07
-2.7743997e-07
-3.0847486e-07
-2.2013196e-07
5.0828193e-08
4.2210207e-07
6.5749601e-07
5.7534452e-07
2.6950414e-07
2.5485003e-08
-8.3924935e-08
-1.3146212e-07
-1.5626469e-07
-1.7086622e-07
-1.7671873e-07
-1.8464936e-07
-1.9157582e-07
-1.6888054e-07
-7.843741e-08
8.9900045e-08
2.8267442e-07
3.9450342e-07
3.5346406e-07
1.9675288e-07
3.5896061e-08
-4.4808355e-08
-9.4290528e-08
-1.2161587e-07
-1.3589624e-07
-1.4123284e-07
-1.4025793e-07
-1.2860074e-07
-9.260166e-08
-1.9079197e-08
8.6055365e-08
1.8987783e-07
2.4552492e-07
2.2305983e-07
1.3796936e-07
3.1877695e-08
-2.4185475e-08
-6.439652e-08
-8.995751e-08
-1.0401168e-07
-1.0786419e-07
-1.0222072e-07
-8.4749155e-08
-5.0674765e-08
2.586666e-09
6.8830042e-08
1.2825649e-07
1.5773919e-07
1.4407888e-07
9.4691045e-08
2.4289264e-08
-1.3694266e-08
-4.3573335e-08
-6.4670088e-08
-7.5416166e-08
-7.8112725e-08
-7.2510134e-08
-5.561241e-08
-2.7918089e-08
8.8459253e-09
5.0630624e-08
8.6681586e-08
1.0305139e-07
9.4001399e-08
6.4007021e-08
1.7162819e-08
-8.1585891e-09
-2.944726e-08
-4.4527656e-08
-5.2430558e-08
-5.4379786e-08
-4.9548737e-08
-3.6521214e-08
-1.6091884e-08
9.6932595e-09
3.6412183e-08
5.7736709e-08
6.6818832e-08
6.0934368e-08
4.234751e-08
1.1109625e-08
-5.5675565e-09
-1.966876e-08
-2.9340165e-08
-3.5527609e-08
-3.6803101e-08
-3.2564775e-08
-2.3867996e-08
-1.003727e-08
7.877526e-09
2.5812482e-08
3.8539837e-08
4.3378983e-08
3.9276869e-08
2.7381909e-08
6.2653488e-09
-4.3987335e-09
-1.2764884e-08
-1.862051e-08
-2.2236496e-08
-2.32068e-08
-2.0980546e-08
-1.5321827e-08
-6.1490038e-09
5.34325e-09
1.7254442e-08
2.5394879e-08
2.7592903e-08
2.4729408e-08
1.7098571e-08
3.1578947e-09
-2.7031317e-09
-7.0850768e-09
-1.0385307e-08
-1.2381154e-08
-1.2891361e-08
-1.1715489e-08
-8.3846153e-09
-2.9034592e-09
3.186441e-09
9.7542943e-09
1.4447381e-08
1.518418e-08
1.3442117e-08
9.2772847e-09
1.2084817e-08
3.3248259e-11
-1.3568996e-08
-2.4250829e-08
-2.9121622e-08
-2.772506e-08
-2.1639661e-08
-1.2172912e-08
-1.0062838e-09
8.9341739e-09
1.6096574e-08
2.1892723e-08
2.5574879e-08
2.4793491e-08
2.0075457e-08
-0.017643615
-0.00038043697
-0.0091532452
-0.12588429
-0.031302177
-0.057235314
-0.045318894
-0.0026952476
-0.013964722
-0.026086238
-0.03716333
-0.03219928
-0.019137848
-0.014718196
-0.24091661
-6.2959271e-06
-1.0931954e-05
-2.7228914e-07
-2.6035305e-05
-8.1036937e-06
-1.3018806e-05
-9.9749369e-06
-4.1241953e-06
-7.5632554e-06
-8.4517298e-06
-9.3288974e-06
-8.0666697e-06
-9.1943264e-06
-5.1449945e-07
-4.6488767e-05
-8.632676e-07
-2.5188599e-06
5.0706039e-07
1.0066179e-06
9.8823462e-08
7.8924125e-07
2.7112068e-07
-1.4431939e-06
-2.0967608e-06
-1.5732712e-06
-4.8790529e-07
4.5070212e-07
6.297661e-07
2.1434372e-06
3.0444194e-06
-3.3018489e-07
-7.9252614e-07
-9.9896978e-08
9.008662e-08
4.547625e-08
2.5591271e-07
-7.1991028e-08
-7.7174449e-07
-1.1159234e-06
-8.8365889e-07
-1.9656093e-07
5.9480565e-07
1.0719067e-06
1.2822111e-06
9.220772e-07
-1.0770304e-07
-3.3885514e-07
-2.0856538e-07
-1.2127917e-07
-7.384459e-08
-2.3816923e-08
-1.8477955e-07
-4.6679653e-07
-5.9157109e-07
-4.2250475e-07
1.0872943e-08
5.1278104e-07
8.1094425e-07
7.8122953e-07
4.2388841e-07
-1.5908555e-08
-1.7085693e-07
-1.8187522e-07
-1.5835326e-07
-1.3321382e-07
-1.2714365e-07
-1.9690022e-07
-2.9676571e-07
-3.1263467e-07
-1.763862e-07
9.2525173e-08
3.8206421e-07
5.423908e-07
4.9125172e-07
2.618063e-07
1.9638165e-08
-9.1702256e-08
-1.3507462e-07
-1.4397547e-07
-1.401025e-07
-1.4406064e-07
-1.6992723e-07
-1.920686e-07
-1.6535777e-07
-6.0708867e-08
1.0506508e-07
2.6953039e-07
3.5410173e-07
3.1489484e-07
1.7974774e-07
2.8595265e-08
-4.9102703e-08
-9.4395897e-08
-1.1516611e-07
-1.2325086e-07
-1.2822849e-07
-1.330791e-07
-1.2571739e-07
-8.8023504e-08
-1.0851006e-08
9.2281787e-08
1.8622671e-07
2.305762e-07
2.050486e-07
1.2508651e-07
2.6411906e-08
-2.6941694e-08
-6.4527675e-08
-8.660013e-08
-9.8744482e-08
-1.0261808e-07
-9.8378045e-08
-8.2591265e-08
-4.78126e-08
7.4384617e-09
7.253068e-08
1.2702658e-07
1.5147203e-07
1.3604079e-07
8.7293538e-08
2.1272849e-08
-1.5938017e-08
-4.4208925e-08
-6.3377532e-08
-7.261917e-08
-7.5374055e-08
-7.0679901e-08
-5.4218248e-08
-2.621781e-08
1.1315464e-08
5.2711479e-08
8.6414578e-08
1.0013693e-07
9.0160295e-08
6.062206e-08
1.5508463e-08
-9.7483699e-09
-3.0000364e-08
-4.4269637e-08
-5.104228e-08
-5.2792526e-08
-4.8616349e-08
-3.5500427e-08
-1.4918256e-08
1.0692458e-08
3.7377589e-08
5.8163749e-08
6.5793315e-08
5.8853099e-08
4.0499535e-08
9.9596365e-09
-6.1092544e-09
-1.9803782e-08
-2.9007936e-08
-3.5341248e-08
-3.651307e-08
-3.1856013e-08
-2.3142674e-08
-9.2830091e-09
8.6667875e-09
2.63762e-08
3.8695301e-08
4.3076245e-08
3.833549e-08
2.5947328e-08
6.0126557e-09
-4.3760758e-09
-1.2742389e-08
-1.8535635e-08
-2.2262105e-08
-2.3021934e-08
-2.0360973e-08
-1.4621398e-08
-5.6480967e-09
5.7154877e-09
1.7179155e-08
2.4914947e-08
2.7154345e-08
2.4117218e-08
1.64748e-08
3.314659e-09
-2.4884401e-09
-7.0938875e-09
-1.0475621e-08
-1.2439821e-08
-1.2636981e-08
-1.1114267e-08
-7.798681e-09
-2.6532949e-09
3.3272073e-09
9.435947e-09
1.3740072e-08
1.4749912e-08
1.3067621e-08
9.0655747e-09
1.1450824e-08
-3.9945462e-10
-1.3715851e-08
-2.4234202e-08
-2.9067124e-08
-2.7736648e-08
-2.1669741e-08
-1.208362e-08
-7.2926755e-10
9.3792598e-09
1.6715823e-08
2.2450785e-08
2.5690389e-08
2.4471007e-08
1.9477821e-08
-0.03258782
-0.022970988
-0.0280614
-0.057222914
-0.00027565158
-0.049080508
-0.038088632
-0.039362432
-0.0071554877
-0.022305933
-0.039600551
-0.022660697
-0.02029817
-0.032064792
-0.12331814
-7.4702261e-06
-1.2478965e-05
-9.5372914e-06
-1.6560803e-05
7.3138952e-07
-2.4789448e-06
-5.3987487e-06
-1.4952133e-05
-7.5558348e-06
-8.127076e-06
-8.6699243e-06
-5.4336889e-06
-8.1224717e-06
-5.7997299e-06
-2.1883562e-05
-1.5924276e-07
-2.3963352e-06
-1.5866724e-06
-1.0422938e-06
1.0717335e-06
3.9171585e-06
1.3516974e-06
-2.4017767e-06
-2.8910527e-06
-1.5378625e-06
2.4247375e-07
7.76531e-07
5.0546038e-07
1.6408176e-06
2.4759359e-06
-2.5520347e-07
-1.0094054e-06
-8.2195597e-07
-4.2588707e-07
4.5349079e-07
1.2186489e-06
2.7431535e-07
-1.1083928e-06
-1.4077019e-06
-7.8809697e-07
1.7823198e-07
8.041839e-07
9.9226887e-07
1.0918165e-06
8.03679e-07
-1.579607e-07
-4.7945306e-07
-4.458686e-07
-2.4909387e-07
7.0591009e-08
2.5356052e-07
-9.1122535e-08
-5.7984573e-07
-6.8211555e-07
-3.5181516e-07
1.9410922e-07
6.3890714e-07
8.0772385e-07
7.1258079e-07
3.5980272e-07
-6.4430865e-08
-2.4267151e-07
-2.6401416e-07
-1.9220333e-07
-8.6810368e-08
-5.1672789e-08
-1.7741485e-07
-3.3544612e-07
-3.3537092e-07
-1.3384295e-07
1.8206332e-07
4.5514387e-07
5.5944695e-07
4.6606467e-07
2.2115907e-07
-9.5749343e-09
-1.2724264e-07
-1.6657619e-07
-1.5550027e-07
-1.2807573e-07
-1.2573975e-07
-1.6843994e-07
-2.0597155e-07
-1.7011371e-07
-3.5834265e-08
1.5160499e-07
3.0913261e-07
3.6884708e-07
3.0585338e-07
1.576309e-07
1.2308524e-08
-6.6667415e-08
-1.0814613e-07
-1.2121667e-07
-1.2165868e-07
-1.2553026e-07
-1.3555925e-07
-1.3084374e-07
-8.6737536e-08
3.096544e-09
1.1546028e-07
2.0722677e-07
2.4064631e-07
2.0330867e-07
1.1431259e-07
1.7449734e-08
-3.5535485e-08
-7.1354035e-08
-9.046533e-08
-9.984483e-08
-1.0346483e-07
-1.0044677e-07
-8.4246882e-08
-4.5793037e-08
1.5023766e-08
8.3919762e-08
1.3791512e-07
1.5801486e-07
1.3692652e-07
8.1901427e-08
1.7027563e-08
-2.0583889e-08
-4.8011759e-08
-6.5705004e-08
-7.4128409e-08
-7.6341883e-08
-7.1304526e-08
-5.466591e-08
-2.4970702e-08
1.5558156e-08
5.8701553e-08
9.1863371e-08
1.0367142e-07
9.0694484e-08
5.819553e-08
1.369987e-08
-1.2280855e-08
-3.2108989e-08
-4.5777731e-08
-5.20089e-08
-5.3277425e-08
-4.8945045e-08
-3.5540004e-08
-1.3906433e-08
1.3067614e-08
4.0589454e-08
6.1144432e-08
6.7432944e-08
5.856783e-08
3.9343241e-08
8.8787005e-09
-6.9824841e-09
-2.0754738e-08
-2.9890976e-08
-3.5946149e-08
-3.7036784e-08
-3.2257875e-08
-2.2846101e-08
-8.187638e-09
1.0045642e-08
2.7891899e-08
4.0235043e-08
4.3827952e-08
3.8105964e-08
2.4917544e-08
5.433504e-09
-4.8008865e-09
-1.3301923e-08
-1.8972358e-08
-2.2797376e-08
-2.3407291e-08
-2.0200813e-08
-1.4188326e-08
-5.2345032e-09
6.2754935e-09
1.7846284e-08
2.5419784e-08
2.749374e-08
2.4314013e-08
1.6120658e-08
2.888275e-09
-2.9604889e-09
-7.572219e-09
-1.0754488e-08
-1.2767005e-08
-1.2651745e-08
-1.065907e-08
-7.6033103e-09
-2.9714773e-09
3.3059065e-09
9.8734365e-09
1.4068788e-08
1.5137093e-08
1.3553247e-08
9.113056e-09
1.1010735e-08
-1.2343007e-09
-1.454569e-08
-2.5197718e-08
-2.9917401e-08
-2.8366095e-08
-2.2159499e-08
-1.2298382e-08
-5.2843757e-10
1.0066503e-08
1.784514e-08
2.3668204e-08
2.6677851e-08
2.5200527e-08
1.9778563e-08
-0.1166296
-0.010304977
-0.01704965
-0.0039733147