/*--------------------------------*- C++ -*----------------------------------*\
| =========                 |                                                 |
| \\      /  F ield         | OpenFOAM: The Open Source CFD Toolbox           |
|  \\    /   O peration     | Version:  3.0.1                                 |
|   \\  /    A nd           | Web:      www.OpenFOAM.org                      |
|    \\/     M anipulation  |                                                 |
\*---------------------------------------------------------------------------*/
FoamFile
{
    version     2.0;
    format      ascii;
    class       volScalarField;
    location    "0.1";
    object      sigmaUn;
}
// * * * * * * * * * * * * * * * * * * * * * * * * * * * * * * * * * * * * * //

dimensions      [0 2 -2 0 0 0 0];

internalField   uniform -0;

boundaryField
{
    movingWall
    {
        type            calculated;
        value           nonuniform List<scalar> 
225
(
2.271975e-08
2.1231928e-08
2.0963346e-08
2.195496e-08
2.4107282e-08
2.4763088e-08
2.2631033e-08
2.1228771e-08
2.0664424e-08
2.1863995e-08
2.0418127e-08
2.0042516e-08
2.048868e-08
2.1236938e-08
2.2168954e-08
-6.143172e-09
-6.6903507e-09
-5.8058011e-09
-3.2677884e-09
6.453007e-10
1.9313044e-09
1.2871812e-09
3.0579401e-10
-9.703932e-10
-1.68609e-09
-1.8225442e-09
-4.5305725e-09
-5.635698e-09
-6.04955e-09
-5.7498026e-09
-3.4574221e-08
-3.3673817e-08
-3.1838853e-08
-2.9241542e-08
-2.6667682e-08
-2.4704163e-08
-2.3834966e-08
-2.4068767e-08
-2.5416582e-08
-2.7566095e-08
-2.8462608e-08
-3.0577133e-08
-3.2089113e-08
-3.3397452e-08
-3.4319831e-08
-5.6184871e-08
-5.4287424e-08
-5.1803715e-08
-4.9345685e-08
-4.7877524e-08
-4.5762922e-08
-4.3448911e-08
-4.3316239e-08
-4.5111025e-08
-4.865764e-08
-4.958396e-08
-5.0719264e-08
-5.2324674e-08
-5.4100498e-08
-5.5649917e-08
-6.524626e-08
-6.3346781e-08
-6.0742734e-08
-5.8158047e-08
-5.6314476e-08
-5.4489398e-08
-5.218739e-08
-5.2052011e-08
-5.3611187e-08
-5.649042e-08
-6.0641544e-08
-6.1231129e-08
-6.284492e-08
-6.4681231e-08
-6.6305858e-08
-6.252234e-08
-6.0376638e-08
-5.7700059e-08
-5.4791371e-08
-5.1735321e-08
-5.0062343e-08
-4.9202378e-08
-4.9461434e-08
-5.0812285e-08
-5.3015412e-08
-5.7650931e-08
-6.0018451e-08
-6.2379362e-08
-6.3848384e-08
-6.4161216e-08
-5.0281851e-08
-4.8225919e-08
-4.5745921e-08
-4.2807529e-08
-3.9153901e-08
-3.7490071e-08
-3.7656681e-08
-3.8152853e-08
-3.946269e-08
-4.1685829e-08
-4.3631026e-08
-4.7510616e-08
-5.0468015e-08
-5.1597388e-08
-5.0762204e-08
-2.9407324e-08
-2.8716689e-08
-2.7229035e-08
-2.4894518e-08
-2.1519552e-08
-2.0301653e-08
-2.0504599e-08
-2.0651252e-08
-2.1071057e-08
-2.1644184e-08
-2.3497967e-08
-2.7077807e-08
-2.9617985e-08
-3.0482356e-08
-2.9853042e-08
-4.3184098e-09
-4.8605586e-09
-4.6467544e-09
-3.5569271e-09
-1.4004237e-09
-1.2011131e-09
-1.021741e-09
-5.2059208e-10
3.1202337e-10
1.8361259e-09
9.304955e-10
-2.7262655e-09
-4.5336726e-09
-4.9116423e-09
-4.4739716e-09
2.0319182e-08
1.9160492e-08
1.7818695e-08
1.6415208e-08
1.4981803e-08
1.6385635e-08
1.6245288e-08
1.7069953e-08
1.8571137e-08
2.0746805e-08
2.204426e-08
2.0656221e-08
2.042919e-08
2.0685837e-08
2.0894376e-08
4.1052614e-08
3.98057e-08
3.708656e-08
3.2992718e-08
2.7254542e-08
2.6871839e-08
2.7628025e-08
2.9074295e-08
3.1002472e-08
3.262529e-08
3.589196e-08
3.9284748e-08
4.1485331e-08
4.2425018e-08
4.1998426e-08
5.6281894e-08
5.4819978e-08
5.1419839e-08
4.6230308e-08
3.9432693e-08
3.5384551e-08
3.6884733e-08
3.8486113e-08
4.0627703e-08
4.2463339e-08
4.6336294e-08
5.2130734e-08
5.594282e-08
5.7604633e-08
5.7138293e-08
6.3277809e-08
6.1818224e-08
5.8566194e-08
5.3786058e-08
4.8371269e-08
4.4354653e-08
4.4079257e-08
4.4553039e-08
4.618597e-08
4.8350713e-08
5.2404089e-08
5.7810422e-08
6.1758151e-08
6.3838629e-08
6.4095574e-08
5.9517515e-08
5.8742861e-08
5.6383937e-08
5.294107e-08
4.9468241e-08
4.5551712e-08
4.3345869e-08
4.2870911e-08
4.3942313e-08
4.5736935e-08
4.9784225e-08
5.4113342e-08
5.7308652e-08
5.9269177e-08
6.0089524e-08
4.5509685e-08
4.4598993e-08
4.3274303e-08
4.1743084e-08
4.0407748e-08
3.8768881e-08
3.5755281e-08
3.4634269e-08
3.5149178e-08
3.7122468e-08
3.7481132e-08
4.0353255e-08
4.2480615e-08
4.4008269e-08
4.4890694e-08
)
;
    }
    CPLReceiveMD
    {
        type            calculated;
        value           nonuniform List<scalar> 
225
(
0.054662337
0.20842519
0.014867004
0.092877697
0.025261629
0.067154115
0.039235727
0.035276504
0.065160375
0.23320516
0.032776845
0.031420328
0.050201063
0.099539983
0.051560656
0.018768619
0.2553443
0.0024734906
0.071662022
0.1730206
0.060087921
0.03017875
0.00074735891
0.045922951
0.020601759
0.015973172
0.07241344
0.13232776
0.032360494
0.097603077
0.037882202
0.074243216
0.010768476
0.044743572
0.33062819
0.075699358
0.86004872
0.01830417
0.056106562
0.034082176
0.099964405
0.016952344
0.14353459
0.04111536
0.054531978
0.06252458
0.040680149
0.059740842
0.04521527
0.10011111
0.017364629
0.012845718
0.2517125
0.11441498
0.007919592
0.015447176
0.24580752
0.012087987
2.1138065
0.024036004
0.070231608
0.62723026
0.088367947
0.021213568
0.13493996
0.032863575
0.089985248
0.062588225
0.00055129155
0.0046256155
0.084687128
0.12243838
0.034869407
0.0055233861
0.024619997
0.053306136
0.035389474
0.012921169
0.5861325
0.014138686
0.082725358
0.01767712
0.11444311
0.098146729
1.4350862
0.079947453
0.082970383
0.088854745
0.046414218
0.15534702
0.15009599
0.068971695
0.069979756
0.18745292
0.042667159
0.040714453
0.032157293
0.090616776
0.076162801
0.013465403
0.13976959
0.04483952
0.028797003
0.13457417
0.044597413
0.21173255
0.023081523
0.0018498156
0.032656447
0.90693862
0.11314748
0.051166687
0.0053854056
0.078700019
0.040887026
0.025467742
0.20066485
0.073751804
0.1334119
0.0059415767
0.14059836
0.040148064
0.0021180066
0.42132667
0.064327777
0.035776839
0.045707174
0.027918407
0.014301661
0.017874518
0.043090978
0.14200392
0.0071015792
0.17877842
0.075025607
0.066631523
0.051895487
0.14879658
0.082144707
0.0058908665
0.010362913
0.018612126
0.052158016
0.04459839
0.034446139
0.016121938
0.062115745
0.077456575
0.010419239
0.010062334
0.11433309
0.023788456
0.013694547
0.061381103
0.040727116
0.16702341
0.018524245
0.074308503
0.07918291
0.011373569
0.033696966
1.7954446
0.065148672
0.043892739
0.19880075
0.099238796
0.051723438
0.074651968
0.056600252
0.077215257
0.006470745
0.053841444
0.064382221
0.045309899
0.12781078
0.028999965
0.11917007
0.54150401
0.66036734
0.034661423
1.3013753
0.16117823
1.3574567
0.05011975
1.7693061
0.59169409
0.09078471
0.038259453
0.040581644
0.022519935
0.046583292
0.020457564
4.0834617
0.36656487
0.021981673
0.021689971
0.0047654699
1.2933742
0.26440262
0.0066258987
0.056373504
0.1451565
0.029431759
0.064115406
0.075024823
0.31445593
0.10863653
0.025674158
0.0027758702
0.093729562
0.015699603
0.071458959
0.014153522
0.0020711951
0.12410003
0.031057213
0.10453987
0.48172984
0.24658519
0.037986758
0.0033801065
0.0076701211
0.017243273
0.044136215
0.035772064
)
;
    }
    streamwiseIn
    {
        type            cyclic;
    }
    streamwiseOut
    {
        type            cyclic;
    }
    front
    {
        type            cyclic;
    }
    back
    {
        type            cyclic;
    }
}


// ************************************************************************* //
