/*--------------------------------*- C++ -*----------------------------------*\
| =========                 |                                                 |
| \\      /  F ield         | OpenFOAM: The Open Source CFD Toolbox           |
|  \\    /   O peration     | Version:  3.0.1                                 |
|   \\  /    A nd           | Web:      www.OpenFOAM.org                      |
|    \\/     M anipulation  |                                                 |
\*---------------------------------------------------------------------------*/
FoamFile
{
    version     2.0;
    format      ascii;
    class       volVectorField;
    location    "0.1";
    object      U;
}
// * * * * * * * * * * * * * * * * * * * * * * * * * * * * * * * * * * * * * //

dimensions      [0 1 -1 0 0 0 0];

internalField   nonuniform List<vector> 
3375
(
(0.00046733419 2.4323969e-05 -2.4478749e-05)
(0.00023416383 7.9946066e-06 -0.00012188791)
(0.00028006114 -2.3460925e-05 -0.00016290368)
(0.00026640269 -3.1410191e-05 0.0001608039)
(0.00029318996 1.157075e-05 0.00012302937)
(0.00033506854 1.1112914e-05 -9.5997834e-05)
(0.00082283227 -2.0438545e-05 1.9689437e-06)
(0.0010865819 8.4156198e-07 -3.59888e-05)
(0.00082424372 1.6799327e-05 -3.1927532e-05)
(0.00055562866 -3.4329249e-05 -9.3312787e-05)
(0.00090628956 -0.00011124606 -5.943506e-05)
(0.00018345118 -0.00032408388 0.00015061429)
(0.0054584671 2.1403928e-05 0.00016452327)
(-0.00011689884 0.00035594389 2.966662e-05)
(0.00049130651 9.4935201e-05 -4.6282106e-06)
(0.00010713395 5.5972182e-05 -2.2343233e-05)
(9.2103035e-05 1.7305992e-05 -5.1126486e-05)
(5.1264557e-05 -3.2256116e-05 -5.6860443e-05)
(-1.0943426e-05 -4.0522024e-05 3.2123159e-05)
(-1.5881082e-05 2.1687354e-05 5.622673e-05)
(3.6419442e-05 2.4765268e-05 4.3640078e-06)
(6.2733516e-05 -1.8847296e-05 -2.0285857e-06)
(6.6338573e-05 -4.0942051e-06 -1.7999513e-05)
(8.6647666e-05 2.2182734e-06 -2.8158107e-05)
(9.4545374e-05 -7.4785038e-05 -4.4693849e-05)
(4.5278299e-05 -0.00018387387 -2.7904298e-05)
(-0.00018123772 -0.00042133523 4.3609499e-05)
(-0.00035910189 2.7333278e-05 7.8859713e-05)
(-0.00015342198 0.00046251181 3.8554688e-05)
(8.1141535e-05 0.00016363812 -2.6535714e-06)
(4.7674358e-05 5.7126696e-05 -8.5765523e-06)
(5.1646054e-05 2.0362055e-05 -1.9212515e-05)
(3.2796743e-05 -8.0479855e-06 -1.8602393e-05)
(7.8911332e-06 -9.0699168e-06 6.9248206e-06)
(6.7946761e-06 1.6415996e-05 1.9916909e-05)
(2.7827052e-05 2.0547914e-05 8.4766013e-06)
(4.395842e-05 2.1473402e-06 -6.234827e-07)
(4.9902326e-05 -1.238424e-05 -1.0123863e-05)
(5.0952015e-05 -3.2071253e-05 -1.7636212e-05)
(3.6415621e-05 -7.1349184e-05 -2.2098015e-05)
(-1.1660254e-05 -0.00011441543 -1.2510765e-05)
(-0.00010280555 -0.00013504048 1.405131e-05)
(-0.00015690455 8.2715795e-06 3.2316473e-05)
(-9.06791e-05 0.0001478579 2.3167406e-05)
(6.1918101e-06 0.00010906158 4.4148268e-06)
(1.836609e-05 4.3200049e-05 -1.8950938e-06)
(2.690467e-05 2.1278691e-05 -6.4138267e-06)
(2.1785226e-05 5.1595125e-06 -5.9785573e-06)
(1.3442507e-05 2.7981208e-06 1.4931985e-06)
(1.3648725e-05 9.9631192e-06 6.3919569e-06)
(2.2084077e-05 9.4521954e-06 3.8229462e-06)
(2.9614017e-05 -1.0299314e-06 -7.5860543e-07)
(3.1855838e-05 -1.483173e-05 -5.7440817e-06)
(2.7507204e-05 -3.15932e-05 -9.6081526e-06)
(1.2117931e-05 -5.156875e-05 -1.0591082e-05)
(-1.8555777e-05 -6.5304803e-05 -5.4977196e-06)
(-5.8675338e-05 -5.5084142e-05 5.1539696e-06)
(-7.7825917e-05 3.4866593e-06 1.3236594e-05)
(-5.2659886e-05 6.0123289e-05 1.1783218e-05)
(-9.6093649e-06 6.3190594e-05 4.6503161e-06)
(5.7624376e-06 2.931943e-05 2.5247834e-07)
(1.3605512e-05 1.835242e-05 -1.7966676e-06)
(1.4316161e-05 9.2894424e-06 -1.8673313e-06)
(1.269472e-05 5.8454357e-06 2.4590956e-07)
(1.3448729e-05 5.8280795e-06 1.8440648e-06)
(1.6833985e-05 3.128047e-06 1.1172947e-06)
(1.9674447e-05 -3.9428452e-06 -8.879656e-07)
(1.9338991e-05 -1.3531113e-05 -3.2286007e-06)
(1.4214952e-05 -2.4203635e-05 -4.9387315e-06)
(2.7039976e-06 -3.3805139e-05 -4.9720891e-06)
(-1.5175682e-05 -3.6855894e-05 -2.3936994e-06)
(-3.401412e-05 -2.5992909e-05 2.1131986e-06)
(-4.1697524e-05 1.7349547e-06 5.6504347e-06)
(-3.0975173e-05 2.8307642e-05 5.731333e-06)
(-1.0731435e-05 3.5807861e-05 3.1783629e-06)
(9.1064923e-07 1.9071098e-05 6.4893446e-07)
(6.8746823e-06 1.4060061e-05 -3.080294e-07)
(9.2782411e-06 8.9674229e-06 -5.2254731e-07)
(9.9811446e-06 5.695214e-06 -1.7635756e-08)
(1.0931336e-05 3.5255201e-06 3.9701042e-07)
(1.2313153e-05 3.8060075e-07 1.0822608e-07)
(1.2954857e-05 -4.6050551e-06 -7.6696561e-07)
(1.1595048e-05 -1.0774367e-05 -1.8104978e-06)
(7.2331771e-06 -1.6958603e-05 -2.4893136e-06)
(-5.3432767e-07 -2.1319646e-05 -2.3029497e-06)
(-1.0743548e-05 -2.1004391e-05 -1.0407284e-06)
(-2.008449e-05 -1.3359863e-05 9.4728354e-07)
(-2.3525366e-05 8.9295694e-07 2.5256381e-06)
(-1.858698e-05 1.4528874e-05 2.8052227e-06)
(-8.5975772e-06 2.047791e-05 1.9133677e-06)
(-6.554118e-07 1.2203015e-05 5.7812026e-07)
(3.5018367e-06 1.0048166e-05 9.2913849e-08)
(5.9513146e-06 7.1595963e-06 -1.1088441e-07)
(7.2528175e-06 4.578868e-06 -5.1015162e-08)
(8.1341154e-06 2.2266239e-06 9.9959527e-10)
(8.70341e-06 -5.7118414e-07 -1.6975859e-07)
(8.5194794e-06 -4.056673e-06 -5.6100964e-07)
(6.9854434e-06 -7.9272872e-06 -1.0054256e-06)
(3.6696729e-06 -1.1395739e-05 -1.2505895e-06)
(-1.34179e-06 -1.3277142e-05 -1.0857515e-06)
(-7.2158996e-06 -1.2172815e-05 -4.3814211e-07)
(-1.2116772e-05 -7.2832406e-06 4.618824e-07)
(-1.3808787e-05 4.6483015e-07 1.1833357e-06)
(-1.1390219e-05 7.8789562e-06 1.3970075e-06)
(-6.1892104e-06 1.1923346e-05 1.099414e-06)
(-9.6453044e-07 7.7584778e-06 4.2470879e-07)
(1.8312638e-06 6.8890664e-06 1.6069246e-07)
(3.8089433e-06 5.2453626e-06 1.1536901e-08)
(5.0481722e-06 3.3875938e-06 -3.8951351e-08)
(5.7812842e-06 1.4326516e-06 -8.6109404e-08)
(6.0298557e-06 -7.3852649e-07 -1.8649822e-07)
(5.5987538e-06 -3.1451634e-06 -3.7503678e-07)
(4.2559819e-06 -5.5733976e-06 -5.6239304e-07)
(1.8833228e-06 -7.5003254e-06 -6.3347199e-07)
(-1.311404e-06 -8.257098e-06 -5.1652965e-07)
(-4.7496467e-06 -7.2151994e-06 -1.8424993e-07)
(-7.4468444e-06 -4.1560042e-06 2.288501e-07)
(-8.3631689e-06 2.4221854e-07 5.778452e-07)
(-7.1284647e-06 4.4645687e-06 7.2373092e-07)
(-4.2735186e-06 7.1092078e-06 6.3022644e-07)
(-8.7555321e-07 4.944434e-06 2.7150675e-07)
(9.8872149e-07 4.6095571e-06 1.3677875e-07)
(2.4498421e-06 3.6653479e-06 4.200868e-08)
(3.4401066e-06 2.4015523e-06 -2.178255e-08)
(4.0079951e-06 9.568436e-07 -8.5615198e-08)
(4.1255951e-06 -6.3919106e-07 -1.4231045e-07)
(3.6846083e-06 -2.2830571e-06 -2.3976814e-07)
(2.6302813e-06 -3.8007686e-06 -3.1523789e-07)
(9.8597249e-07 -4.8786773e-06 -3.2634301e-07)
(-1.0566639e-06 -5.1607134e-06 -2.4992871e-07)
(-3.1148058e-06 -4.3592439e-06 -8.1197557e-08)
(-4.6593544e-06 -2.4630681e-06 1.1978237e-07)
(-5.1882138e-06 1.1460777e-07 3.0010945e-07)
(-4.52323e-06 2.6198486e-06 3.9059498e-07)
(-2.8953013e-06 4.3461046e-06 3.5614486e-07)
(-7.010779e-07 3.1570244e-06 1.637558e-07)
(5.5217771e-07 3.0361678e-06 1.0558165e-07)
(1.6009384e-06 2.4787319e-06 4.693507e-08)
(2.3396679e-06 1.641877e-06 -5.3013278e-09)
(2.7405409e-06 6.3752114e-07 -5.2932224e-08)
(2.7899551e-06 -4.6865228e-07 -1.0692291e-07)
(2.4371763e-06 -1.5765334e-06 -1.5175052e-07)
(1.6603617e-06 -2.524301e-06 -1.8679032e-07)
(5.2337805e-07 -3.1333859e-06 -1.8672938e-07)
(-7.9197061e-07 -3.2202903e-06 -1.3243496e-07)
(-2.0520014e-06 -2.663051e-06 -2.6659837e-08)
(-2.9729927e-06 -1.4826626e-06 7.8177218e-08)
(-3.2802522e-06 6.183027e-08 1.7012978e-07)
(-2.8969679e-06 1.5752264e-06 2.1797526e-07)
(-1.9489332e-06 2.6792369e-06 2.1113346e-07)
(-5.1862229e-07 1.9924309e-06 1.1599642e-07)
(3.1042905e-07 1.9709464e-06 8.311021e-08)
(1.0555513e-06 1.6421807e-06 3.8407679e-08)
(1.5988958e-06 1.0977347e-06 -3.5744799e-09)
(1.8974658e-06 4.2008702e-07 -3.691172e-08)
(1.9115405e-06 -3.1542538e-07 -5.9266258e-08)
(1.6289595e-06 -1.0447002e-06 -8.9161185e-08)
(1.0734288e-06 -1.6422284e-06 -1.0796327e-07)
(2.8998322e-07 -1.9927099e-06 -1.0452537e-07)
(-5.8632901e-07 -1.989972e-06 -6.6915331e-08)
(-1.3771781e-06 -1.6153595e-06 -2.5752553e-08)
(-1.9344731e-06 -8.8185032e-07 4.6555175e-08)
(-2.1303247e-06 5.5580317e-08 9.7562355e-08)
(-1.9058234e-06 9.7015322e-07 1.2276123e-07)
(-1.3135034e-06 1.6469313e-06 1.276668e-07)
(-3.7706281e-07 1.2482601e-06 9.5625763e-08)
(2.0192752e-07 1.2627624e-06 7.3461717e-08)
(7.2772668e-07 1.0736809e-06 4.4751538e-08)
(1.1175742e-06 7.3000603e-07 1.4987727e-08)
(1.3273808e-06 2.8743959e-07 -1.2739411e-08)
(1.3251679e-06 -2.0809455e-07 -2.7521544e-08)
(1.1103732e-06 -6.7456078e-07 -5.4082582e-08)
(7.1235196e-07 -1.0528121e-06 -7.2969826e-08)
(1.7563446e-07 -1.2623783e-06 -7.5204855e-08)
(-4.1462022e-07 -1.2365014e-06 -5.6171572e-08)
(-9.4387973e-07 -9.7513375e-07 -3.1174776e-08)
(-1.3020529e-06 -5.2256234e-07 1.5964118e-08)
(-1.4282486e-06 5.329418e-08 5.1732775e-08)
(-1.3056169e-06 6.135485e-07 7.6943354e-08)
(-9.2665552e-07 1.0324369e-06 9.5467173e-08)
(-2.8829676e-07 7.9949433e-07 6.9191686e-08)
(1.3584985e-07 8.0064384e-07 5.924856e-08)
(5.2279495e-07 6.8151421e-07 4.3396116e-08)
(8.1265447e-07 4.6652374e-07 2.5315542e-08)
(9.5936522e-07 1.9221371e-07 6.7313163e-09)
(9.4954013e-07 -1.2597633e-07 -8.1423231e-09)
(7.8424193e-07 -4.1758911e-07 -3.3889363e-08)
(4.8561134e-07 -6.5578528e-07 -5.2397247e-08)
(1.06294e-07 -7.8527732e-07 -5.7444214e-08)
(-2.9908451e-07 -7.7154093e-07 -4.8803761e-08)
(-6.6323911e-07 -5.9950177e-07 -3.3920408e-08)
(-9.0604516e-07 -3.0897779e-07 -9.6198505e-10)
(-9.9421386e-07 4.5767896e-08 2.6252643e-08)
(-9.2668069e-07 3.9052718e-07 4.8475823e-08)
(-6.787918e-07 6.6565309e-07 6.6560813e-08)
(-2.4207205e-07 4.7306815e-07 3.6754907e-08)
(8.39474e-08 4.6215636e-07 4.0769808e-08)
(3.9360658e-07 3.911653e-07 3.6159377e-08)
(6.2827372e-07 2.6926403e-07 2.7311279e-08)
(7.3488071e-07 1.184049e-07 1.6328724e-08)
(7.1536508e-07 -6.4894208e-08 -2.2061856e-09)
(5.8056426e-07 -2.35751e-07 -2.3592734e-08)
(3.4466376e-07 -3.7206544e-07 -3.7423809e-08)
(5.987881e-08 -4.4405452e-07 -4.0989959e-08)
(-2.2884467e-07 -4.4072564e-07 -3.4821446e-08)
(-4.8131659e-07 -3.3967815e-07 -2.3745905e-08)
(-6.5678326e-07 -1.6455198e-07 -5.0566708e-09)
(-7.2874363e-07 3.4682395e-08 1.2520611e-08)
(-6.8573173e-07 2.2866133e-07 2.6675401e-08)
(-5.1768838e-07 3.9617473e-07 3.4900874e-08)
(-2.222595e-07 1.5979764e-07 1.5994674e-08)
(5.3933445e-08 1.5361779e-07 2.7896872e-08)
(3.2982013e-07 1.2980454e-07 2.8733782e-08)
(5.3975929e-07 8.9929475e-08 2.3768405e-08)
(6.2505102e-07 4.1446866e-08 1.7175761e-08)
(5.9523568e-07 -1.9716834e-08 -5.8492771e-09)
(4.7695154e-07 -7.8504012e-08 -1.998146e-08)
(2.7723837e-07 -1.2318471e-07 -2.7930121e-08)
(3.7624136e-08 -1.458435e-07 -2.9335191e-08)
(-1.946599e-07 -1.4542456e-07 -2.3642874e-08)
(-3.8696932e-07 -1.1171584e-07 -1.1963315e-08)
(-5.3155205e-07 -5.1197261e-08 -4.3256174e-09)
(-6.008501e-07 1.3351725e-08 6.8617395e-09)
(-5.6504664e-07 7.6514683e-08 1.5464356e-08)
(-4.3427611e-07 1.3386578e-07 1.735902e-08)
(0.0011687441 8.7301001e-06 -0.00011249955)
(0.0013424937 4.3763852e-05 -4.9521206e-05)
(0.0006357776 2.5947134e-05 -3.5865856e-05)
(0.00025430402 -0.00012780648 2.4047583e-05)
(0.0028252397 7.2125106e-07 6.3470971e-05)
(0.00015813637 0.00013092789 1.0063871e-05)
(0.00053265428 2.8759477e-05 -5.1149605e-05)
(0.00023003257 9.8685205e-06 -1.8875404e-05)
(0.00031780907 -1.4235783e-05 3.5237061e-05)
(0.00041532807 -2.7593581e-05 -4.2251782e-05)
(0.00034394116 -8.1777169e-05 -2.4437462e-05)
(9.8432563e-05 -0.00019144054 0.00016266833)
(0.00014069414 -4.6026303e-05 0.00042676045)
(-0.00030446981 0.00015838552 2.5711458e-07)
(0.00053296029 8.1602275e-05 -0.00038773201)
(8.9849723e-05 4.6673869e-05 -4.2419727e-05)
(8.4514318e-05 6.6695535e-05 -2.8048463e-05)
(9.31352e-05 2.9927154e-05 -2.0909562e-05)
(2.49566e-05 -0.00015272313 8.5716863e-06)
(-4.7806342e-05 1.7631239e-06 3.3866898e-05)
(8.538353e-06 0.00015911328 1.8908243e-05)
(6.6920575e-05 3.9874414e-05 -5.136164e-06)
(7.1405232e-05 8.7715899e-06 -1.0893561e-05)
(7.9640279e-05 -2.9716051e-05 -1.4614898e-05)
(8.8358537e-05 -6.1465139e-05 -2.9628251e-05)
(6.1062153e-05 -0.00014668945 -8.9732115e-06)
(-0.00012449914 -0.00028338562 5.4632578e-05)
(-0.00031759161 -6.8034223e-05 0.00010506221)
(-0.00020257607 0.00023411489 1.4082622e-05)
(2.6264788e-05 0.00015458191 -7.4468196e-05)
(3.9542294e-05 6.7423874e-05 -1.2092453e-05)
(5.0233999e-05 3.9620625e-05 -1.14699e-05)
(4.5194916e-05 9.1646649e-06 -8.7160395e-06)
(2.1967566e-05 -2.7865999e-05 3.2953479e-06)
(4.5137962e-06 2.777474e-06 1.4201579e-05)
(1.8566683e-05 3.5008085e-05 1.0561337e-05)
(3.7552109e-05 1.3008518e-05 5.6120765e-07)
(4.4781137e-05 -6.5618071e-06 -7.5340093e-06)
(4.6815446e-05 -3.0400802e-05 -1.4191401e-05)
(3.8861553e-05 -6.0630051e-05 -1.7192992e-05)
(2.958803e-06 -0.00010433762 -6.2477754e-06)
(-8.1659525e-05 -0.00013282941 1.6799152e-05)
(-0.0001501199 -2.9818158e-05 3.1152019e-05)
(-0.00010759655 0.00010980393 1.201755e-05)
(-1.1611781e-05 0.00011503231 -1.1047383e-05)
(1.4177971e-05 4.8597962e-05 -1.8985758e-06)
(2.5936609e-05 2.9046686e-05 -3.445879e-06)
(2.55558e-05 1.1217537e-05 -2.8347122e-06)
(1.8518183e-05 -8.4754436e-07 1.3961233e-06)
(1.428572e-05 3.5385323e-06 5.3612214e-06)
(1.8724807e-05 8.3712198e-06 4.2968006e-06)
(2.5264523e-05 3.9151697e-07 -1.0113618e-07)
(2.7966932e-05 -1.1730458e-05 -5.0135462e-06)
(2.5521845e-05 -2.7080111e-05 -8.8765321e-06)
(1.4356847e-05 -4.5151435e-05 -9.4417999e-06)
(-1.1167012e-05 -6.1915526e-05 -4.2167669e-06)
(-5.0044375e-05 -5.9792998e-05 5.0174567e-06)
(-7.5160849e-05 -1.0418029e-05 1.1067869e-05)
(-5.7732494e-05 5.0229785e-05 7.7283349e-06)
(-1.6204508e-05 6.4886346e-05 1.2005502e-06)
(3.7025695e-06 3.1037444e-05 8.3812218e-07)
(1.2853494e-05 2.1176074e-05 -4.0083269e-07)
(1.5300662e-05 1.1442378e-05 -5.3386974e-07)
(1.4288549e-05 5.0040342e-06 6.9909333e-07)
(1.3732365e-05 3.2849265e-06 1.8546324e-06)
(1.5419657e-05 1.6232502e-06 1.2966112e-06)
(1.745041e-05 -3.8062761e-06 -7.4891373e-07)
(1.7309501e-05 -1.1742102e-05 -3.2422083e-06)
(1.3394457e-05 -2.1125851e-05 -5.0805768e-06)
(4.0261214e-06 -3.0319065e-05 -5.0811466e-06)
(-1.1682768e-05 -3.5271203e-05 -2.585253e-06)
(-3.0162044e-05 -2.8227382e-05 1.5166774e-06)
(-4.0097166e-05 -3.5034962e-06 4.5415348e-06)
(-3.2292181e-05 2.4356062e-05 4.5224761e-06)
(-1.3243627e-05 3.5407206e-05 2.6549218e-06)
(-5.3161175e-08 1.9343546e-05 1.2493942e-06)
(6.3415435e-06 1.4915625e-05 4.9545854e-07)
(9.3837601e-06 9.6582157e-06 1.8656134e-07)
(1.0360731e-05 5.4586994e-06 3.8631187e-07)
(1.0904936e-05 2.6245247e-06 5.7148461e-07)
(1.1633605e-05 -2.711839e-07 1.6344581e-07)
(1.1899171e-05 -4.454305e-06 -8.3223575e-07)
(1.0647357e-05 -9.7026496e-06 -2.0247634e-06)
(6.9448826e-06 -1.5196031e-05 -2.8396413e-06)
(2.1149474e-07 -1.9496118e-05 -2.7252122e-06)
(-9.0753293e-06 -2.0152007e-05 -1.4520336e-06)
(-1.8276668e-05 -1.4214729e-05 4.8435104e-07)
(-2.2577404e-05 -1.2194915e-06 2.0741544e-06)
(-1.8821791e-05 1.262355e-05 2.550141e-06)
(-9.5231267e-06 1.9736519e-05 2.0535301e-06)
(-1.1183247e-06 1.2060539e-05 1.0041429e-06)
(3.1681644e-06 1.0207716e-05 5.973325e-07)
(5.8437368e-06 7.3463047e-06 3.3308983e-07)
(7.254858e-06 4.510885e-06 2.3992396e-07)
(8.0024819e-06 1.9486811e-06 1.4250103e-07)
(8.3408269e-06 -7.4615841e-07 -1.59613e-07)
(8.0189438e-06 -3.8658237e-06 -6.719286e-07)
(6.5677756e-06 -7.2887264e-06 -1.2388602e-06)
(3.6009881e-06 -1.0430934e-05 -1.5728351e-06)
(-9.2985506e-07 -1.2340848e-05 -1.4458521e-06)
(-6.4013785e-06 -1.1722936e-05 -7.9710243e-07)
(-1.1229528e-05 -7.6123893e-06 1.6708234e-07)
(-1.3258887e-05 -4.4834658e-07 1.0273252e-06)
(-1.1336171e-05 6.9247731e-06 1.4337316e-06)
(-6.5236307e-06 1.1354836e-05 1.3686725e-06)
(-1.2002815e-06 7.5586462e-06 6.9774822e-07)
(1.6273096e-06 6.8477505e-06 4.8074284e-07)
(3.6869296e-06 5.2634339e-06 2.9817588e-07)
(4.9631073e-06 3.358439e-06 1.6102448e-07)
(5.647893e-06 1.3632824e-06 2.0295231e-08)
(5.8190999e-06 -7.4007833e-07 -1.9592369e-07)
(5.3566029e-06 -2.9798245e-06 -4.7114456e-07)
(4.0822463e-06 -5.1938164e-06 -7.3955806e-07)
(1.8927606e-06 -6.9852337e-06 -8.6929554e-07)
(-1.0805066e-06 -7.7843769e-06 -7.6539089e-07)
(-4.3468703e-06 -6.9793947e-06 -4.2427477e-07)
(-7.0020788e-06 -4.2869104e-06 7.0955827e-08)
(-8.040242e-06 -1.776362e-07 5.4122449e-07)
(-7.0186089e-06 3.9681823e-06 8.186801e-07)
(-4.3873611e-06 6.7155045e-06 8.620433e-07)
(-9.8607868e-07 4.7839668e-06 4.5691034e-07)
(8.7295209e-07 4.5423778e-06 3.4759951e-07)
(2.3544252e-06 3.6396957e-06 2.2940296e-07)
(3.3547065e-06 2.3802716e-06 1.1501704e-07)
(3.9039646e-06 9.4679109e-07 -4.2892597e-10)
(3.9977201e-06 -5.9178306e-07 -1.5018461e-07)
(3.5652057e-06 -2.1524603e-06 -3.0476575e-07)
(2.5623663e-06 -3.578778e-06 -4.343494e-07)
(1.0104276e-06 -4.6107144e-06 -4.8397767e-07)
(-9.2401602e-07 -4.9235021e-06 -4.1188579e-07)
(-2.903912e-06 -4.2358515e-06 -2.1793408e-07)
(-4.4277696e-06 -2.5055693e-06 4.3915876e-08)
(-5.0037946e-06 -7.9495896e-08 3.0180538e-07)
(-4.4430304e-06 2.3493384e-06 4.7208667e-07)
(-2.9331669e-06 4.0866605e-06 5.2273745e-07)
(-7.4456417e-07 3.0536417e-06 3.1309592e-07)
(4.8303842e-07 2.9863966e-06 2.5347167e-07)
(1.5248233e-06 2.4591157e-06 1.7181795e-07)
(2.2702027e-06 1.638511e-06 8.5300721e-08)
(2.6758384e-06 6.5456779e-07 2.5151207e-09)
(2.7198485e-06 -4.2631563e-07 -8.6876458e-08)
(2.369608e-06 -1.4896441e-06 -1.8155203e-07)
(1.6239922e-06 -2.4040066e-06 -2.5651179e-07)
(5.4803647e-07 -3.0014646e-06 -2.7936218e-07)
(-7.0564371e-07 -3.1046146e-06 -2.2774154e-07)
(-1.9289375e-06 -2.6059784e-06 -1.0819418e-07)
(-2.8457232e-06 -1.5004775e-06 3.9349184e-08)
(-3.1853343e-06 -3.4231881e-08 1.8132616e-07)
(-2.8524525e-06 1.4317183e-06 2.805509e-07)
(-1.9527326e-06 2.5393087e-06 3.2529891e-07)
(-5.3899086e-07 1.9421722e-06 2.1513452e-07)
(2.7842602e-07 1.9406596e-06 1.8910475e-07)
(1.0065397e-06 1.633955e-06 1.4047092e-07)
(1.5501586e-06 1.1075564e-06 8.1801944e-08)
(1.839138e-06 4.4518305e-07 2.4620569e-08)
(1.8535082e-06 -2.841946e-07 -5.108359e-08)
(1.5875148e-06 -9.9404831e-07 -1.1195953e-07)
(1.0505458e-06 -1.5780442e-06 -1.6034465e-07)
(3.0981962e-07 -1.9280195e-06 -1.7303826e-07)
(-5.285298e-07 -1.947689e-06 -1.3344478e-07)
(-1.2997749e-06 -1.6026204e-06 -6.6673164e-08)
(-1.8560231e-06 -9.0785101e-07 2.6403918e-08)
(-2.0715988e-06 -5.0050467e-09 1.1447597e-07)
(-1.8694898e-06 8.9537405e-07 1.8306345e-07)
(-1.3112435e-06 1.5845215e-06 2.2704949e-07)
(-3.884261e-07 1.2237565e-06 1.716571e-07)
(1.7482125e-07 1.2413766e-06 1.5036872e-07)
(6.9172015e-07 1.0638167e-06 1.1668045e-07)
(1.0814308e-06 7.3276337e-07 7.5854612e-08)
(1.2840874e-06 2.9975028e-07 3.5056056e-08)
(1.2806171e-06 -1.7792356e-07 -2.1377951e-08)
(1.0757583e-06 -6.4172324e-07 -6.7921162e-08)
(6.9002102e-07 -1.0151627e-06 -1.0556452e-07)
(1.7839171e-07 -1.2264182e-06 -1.1870186e-07)
(-3.8024457e-07 -1.2212374e-06 -1.0238065e-07)
(-8.8909951e-07 -9.7767463e-07 -5.3728234e-08)
(-1.2481078e-06 -5.4614994e-07 9.7028609e-09)
(-1.3821092e-06 1.3327923e-08 7.1204252e-08)
(-1.2629259e-06 5.6757649e-07 1.2480752e-07)
(-9.0593455e-07 9.9123701e-07 1.6993816e-07)
(-2.8885122e-07 7.6018699e-07 1.3214518e-07)
(1.1848624e-07 7.7412889e-07 1.1997375e-07)
(4.9792639e-07 6.6737092e-07 9.7964924e-08)
(7.860922e-07 4.627895e-07 6.8704059e-08)
(9.2845103e-07 1.9401199e-07 3.7770125e-08)
(9.120347e-07 -1.0843596e-07 -2.4752045e-09)
(7.5027563e-07 -3.9999907e-07 -4.4588517e-08)
(4.6585085e-07 -6.3164514e-07 -7.5357382e-08)
(1.0374489e-07 -7.5735531e-07 -8.6668385e-08)
(-2.7978623e-07 -7.4811102e-07 -8.0153137e-08)
(-6.2468745e-07 -5.9299028e-07 -4.6499988e-08)
(-8.6502052e-07 -3.1830788e-07 8.5776471e-10)
(-9.5787239e-07 2.3242244e-08 4.6481e-08)
(-8.9158068e-07 3.5689091e-07 8.6827707e-08)
(-6.5506345e-07 6.1729437e-07 1.2176658e-07)
(-2.3159158e-07 4.3165924e-07 8.9598845e-08)
(8.2005185e-08 4.3558958e-07 8.9698361e-08)
(3.8038075e-07 3.7506482e-07 7.7714905e-08)
(6.0807185e-07 2.5996597e-07 5.6539821e-08)
(7.1286191e-07 1.1029502e-07 3.0326117e-08)
(6.8660605e-07 -6.1271166e-08 3.8873885e-09)
(5.5254914e-07 -2.2538558e-07 -3.158213e-08)
(3.3266478e-07 -3.5255697e-07 -5.3653752e-08)
(6.1925837e-08 -4.1913962e-07 -6.0448247e-08)
(-2.1587953e-07 -4.1211979e-07 -5.3486928e-08)
(-4.5929638e-07 -3.2292997e-07 -3.16412e-08)
(-6.3187533e-07 -1.6520784e-07 -2.8579274e-11)
(-7.0691041e-07 2.1600627e-08 3.1673412e-08)
(-6.688738e-07 2.0385222e-07 5.8677725e-08)
(-5.0263847e-07 3.5270467e-07 7.6796184e-08)
(-2.059145e-07 1.4258639e-07 6.3155414e-08)
(6.1876407e-08 1.4261449e-07 7.0234624e-08)
(3.2222225e-07 1.2247799e-07 6.2617462e-08)
(5.2119226e-07 8.4550798e-08 4.4813121e-08)
(6.0706239e-07 3.5750066e-08 1.9994348e-08)
(5.7621026e-07 -2.1070882e-08 2.3125214e-09)
(4.5887515e-07 -7.4474409e-08 -2.3671812e-08)
(2.7202856e-07 -1.1460703e-07 -3.8990946e-08)
(4.4170609e-08 -1.3502772e-07 -4.3096017e-08)
(-1.8353133e-07 -1.3234694e-07 -3.4668616e-08)
(-3.7768201e-07 -1.0273338e-07 -1.9356154e-08)
(-5.2036038e-07 -5.0846961e-08 3.9715326e-10)
(-5.8866488e-07 8.6242231e-09 2.4371696e-08)
(-5.6033583e-07 6.7222492e-08 4.365482e-08)
(-4.2714896e-07 1.1699535e-07 5.1115562e-08)
(0.00060697873 9.4482862e-05 -3.9288195e-05)
(0.00022933928 2.949761e-05 3.4830186e-05)
(0.00021822675 -8.4856213e-06 1.2883831e-05)
(0.00035189686 -4.68977e-05 -0.00013316679)
(0.00036971304 -1.8064481e-05 0.00017325153)
(1.9187206e-05 1.9953337e-05 0.00023775366)
(0.00039366354 2.5601153e-05 -3.1927401e-05)
(0.00012465726 8.8333372e-06 4.1041347e-05)
(0.00010959118 -3.3069654e-05 -8.0761818e-05)
(0.00090603681 -2.1683538e-05 -0.0001464488)
(0.00060863281 -9.5769447e-05 -4.105987e-05)
(0.00051202362 -0.00043219905 9.6756396e-06)
(0.0055776375 -0.00030050671 8.3152988e-05)
(0.0054190465 0.00036977008 -9.6334611e-06)
(0.00037227393 0.00040839936 -0.00011035841)
(0.00015350412 0.00015644804 -4.9007347e-06)
(0.00011359284 5.5384982e-05 7.3055797e-06)
(8.7850897e-05 -5.0879564e-06 -4.5419319e-06)
(4.3829583e-05 -6.1286006e-05 -2.1009139e-05)
(-5.5219467e-06 -2.7613239e-05 4.1889213e-05)
(-2.6337451e-06 2.5258334e-05 5.9756468e-05)
(3.2831771e-05 3.2889642e-05 1.3933489e-05)
(5.6598094e-05 7.2571015e-06 -1.1408127e-06)
(6.7740483e-05 -4.7227269e-05 -4.0244998e-05)
(0.00010028938 -4.9704385e-05 -5.0191326e-05)
(0.00012941365 -0.00016567148 -2.0303893e-05)
(-6.7232911e-05 -0.0005672844 8.6614097e-06)
(-0.00039958116 -0.00036848779 2.4028647e-05)
(-0.00033136709 0.00047427274 2.9460834e-06)
(2.4637992e-05 0.00054052008 -1.6211827e-05)
(4.7251829e-05 9.7647857e-05 2.9001901e-06)
(5.5022463e-05 4.4964643e-05 2.7760793e-06)
(4.7561983e-05 1.0026867e-05 -1.8155374e-06)
(3.080875e-05 -1.6245481e-05 -2.5441491e-06)
(1.406067e-05 -1.2089685e-05 1.2145989e-05)
(1.4186669e-05 5.9364715e-06 1.6918033e-05)
(2.5863049e-05 7.1823713e-06 6.1933236e-06)
(3.5149652e-05 -6.5042233e-06 -5.4927279e-06)
(4.1292989e-05 -2.6332889e-05 -1.9311909e-05)
(4.4359272e-05 -5.116273e-05 -2.1649081e-05)
(2.2331858e-05 -0.00010965898 -1.1292018e-05)
(-6.5405764e-05 -0.00018465561 2.0628262e-06)
(-0.00016168613 -8.5722791e-05 9.6237816e-06)
(-0.00013287811 0.00014150361 6.937918e-06)
(-1.7918194e-05 0.00018473035 2.7291692e-06)
(1.3719661e-05 5.6130624e-05 3.927456e-06)
(2.5968533e-05 3.2347758e-05 2.3241924e-06)
(2.6627228e-05 1.3341682e-05 2.9399838e-07)
(2.1638441e-05 2.0186623e-07 4.7116053e-07)
(1.6549402e-05 -2.3838269e-06 4.0065034e-06)
(1.662172e-05 1.8747002e-07 4.8001978e-06)
(2.030367e-05 -2.3400527e-06 9.8657529e-07)
(2.3080442e-05 -1.0539929e-05 -4.6753023e-06)
(2.307895e-05 -2.2482376e-05 -9.9887264e-06)
(1.6777696e-05 -3.9456904e-05 -1.0749016e-05)
(-4.0965208e-06 -6.164228e-05 -6.5161519e-06)
(-4.3390702e-05 -7.0366617e-05 -1.2546901e-07)
(-7.5115039e-05 -2.3123825e-05 4.6586694e-06)
(-6.2527205e-05 5.2628215e-05 5.840815e-06)
(-1.9236276e-05 7.6892899e-05 5.0656711e-06)
(2.706683e-06 3.24674e-05 3.2254903e-06)
(1.223352e-05 2.2293758e-05 2.053443e-06)
(1.5416088e-05 1.2310716e-05 9.7087595e-07)
(1.5083223e-05 4.8356243e-06 7.8287993e-07)
(1.4046247e-05 1.0383427e-06 1.3828456e-06)
(1.4230439e-05 -1.0053077e-06 1.0961615e-06)
(1.5135628e-05 -4.6739448e-06 -7.1956594e-07)
(1.5007328e-05 -1.054233e-05 -3.3404707e-06)
(1.2376013e-05 -1.8166745e-05 -5.5111994e-06)
(5.1993214e-06 -2.7088551e-05 -5.7176716e-06)
(-8.5778582e-06 -3.409116e-05 -3.7287464e-06)
(-2.6887332e-05 -3.0526015e-05 -4.7617977e-07)
(-3.8691725e-05 -7.2587603e-06 2.4368332e-06)
(-3.2861785e-05 2.3129448e-05 3.9034646e-06)
(-1.4415788e-05 3.6660841e-05 4.0057499e-06)
(-6.4742231e-07 1.9237119e-05 2.3064435e-06)
(5.8118495e-06 1.5058226e-05 1.628229e-06)
(9.1690945e-06 9.8343825e-06 9.8159733e-07)
(1.0366068e-05 5.2360446e-06 6.3931373e-07)
(1.070847e-05 1.8133887e-06 4.8109565e-07)
(1.0909432e-05 -1.0756234e-06 1.6680771e-08)
(1.0766648e-05 -4.52807e-06 -9.6061826e-07)
(9.5876421e-06 -8.7710188e-06 -2.2035901e-06)
(6.5327283e-06 -1.3450861e-05 -3.1205356e-06)
(8.5328e-07 -1.7684351e-05 -3.1474295e-06)
(-7.5339844e-06 -1.921624e-05 -2.0758628e-06)
(-1.6558302e-05 -1.4709458e-05 -3.6312011e-07)
(-2.1459576e-05 -2.6212526e-06 1.3256417e-06)
(-1.8607604e-05 1.1440129e-05 2.3982289e-06)
(-9.898324e-06 1.9191661e-05 2.6465219e-06)
(-1.4267518e-06 1.1651369e-05 1.5128656e-06)
(2.8307836e-06 1.003345e-05 1.1566872e-06)
(5.5939061e-06 7.2712109e-06 7.6419129e-07)
(7.0622288e-06 4.3535806e-06 4.4478724e-07)
(7.7345785e-06 1.6754345e-06 1.6360295e-07)
(7.8889804e-06 -9.3055364e-07 -2.2496669e-07)
(7.4402322e-06 -3.6955818e-06 -7.9076704e-07)
(6.0845369e-06 -6.6420819e-06 -1.3965248e-06)
(3.4626809e-06 -9.425393e-06 -1.787423e-06)
(-5.6605731e-07 -1.131732e-05 -1.7320438e-06)
(-5.6029652e-06 -1.1145056e-05 -1.1524863e-06)
(-1.0292345e-05 -7.6966358e-06 -2.1860961e-07)
(-1.2542137e-05 -1.0680997e-06 7.432032e-07)
(-1.1048872e-05 6.1474954e-06 1.4143242e-06)
(-6.6187992e-06 1.0731859e-05 1.6473993e-06)
(-1.3458309e-06 7.2112452e-06 9.5525176e-07)
(1.4316914e-06 6.6393334e-06 7.8334332e-07)
(3.4892249e-06 5.1416757e-06 5.4706227e-07)
(4.7702915e-06 3.2626869e-06 3.0645246e-07)
(5.424336e-06 1.2897216e-06 6.6850035e-08)
(5.5384159e-06 -7.2909811e-07 -2.1269018e-07)
(5.0551195e-06 -2.7780005e-06 -5.4109032e-07)
(3.8578309e-06 -4.7688868e-06 -8.4760169e-07)
(1.85749e-06 -6.411468e-06 -1.0220618e-06)
(-8.663832e-07 -7.2231317e-06 -9.5645976e-07)
(-3.9132999e-06 -6.636031e-06 -6.3258684e-07)
(-6.4813452e-06 -4.2791707e-06 -1.0525811e-07)
(-7.6154446e-06 -4.8330132e-07 4.3716487e-07)
(-6.8076459e-06 3.5029237e-06 8.298666e-07)
(-4.3944505e-06 6.2632727e-06 9.9849051e-07)
(-1.0506911e-06 4.5597817e-06 6.1059917e-07)
(7.6121411e-07 4.382286e-06 5.2544324e-07)
(2.2172597e-06 3.53899e-06 3.8303949e-07)
(3.2102747e-06 2.3258285e-06 2.1883515e-07)
(3.7427934e-06 9.3906349e-07 5.0236753e-08)
(3.8212582e-06 -5.3014383e-07 -1.4267532e-07)
(3.4004435e-06 -1.9934645e-06 -3.3650596e-07)
(2.4510694e-06 -3.3177224e-06 -5.0409232e-07)
(1.0084361e-06 -4.2887439e-06 -5.878415e-07)
(-7.9062031e-07 -4.623064e-06 -5.3300131e-07)
(-2.6590042e-06 -4.0431633e-06 -3.4108953e-07)
(-4.1396149e-06 -2.4946748e-06 -4.1776435e-08)
(-4.760043e-06 -2.4529057e-07 2.6282011e-07)
(-4.3022979e-06 2.0817194e-06 4.9379754e-07)
(-2.9104777e-06 3.8093602e-06 6.1627564e-07)
(-7.7290515e-07 2.9152485e-06 4.1358769e-07)
(4.1089974e-07 2.8776731e-06 3.6148066e-07)
(1.4327674e-06 2.3897999e-06 2.7428928e-07)
(2.170365e-06 1.6086619e-06 1.6867394e-07)
(2.5683637e-06 6.6257063e-07 5.3916795e-08)
(2.6058879e-06 -3.6955126e-07 -7.4564877e-08)
(2.2675409e-06 -1.3837272e-06 -1.9975416e-07)
(1.5625515e-06 -2.2502963e-06 -2.9921765e-07)
(5.5214831e-07 -2.8224465e-06 -3.4046756e-07)
(-6.2080261e-07 -2.9418493e-06 -3.0463443e-07)
(-1.7849107e-06 -2.5117901e-06 -1.8080298e-07)
(-2.6834724e-06 -1.5001746e-06 -1.4453321e-08)
(-3.0390504e-06 -1.2549914e-07 1.6463587e-07)
(-2.7529952e-06 1.2862032e-06 3.1273764e-07)
(-1.9163881e-06 2.383549e-06 4.0128045e-07)
(-5.5656703e-07 1.850992e-06 2.8607247e-07)
(2.3576544e-07 1.8678435e-06 2.5404167e-07)
(9.482485e-07 1.5870432e-06 2.021403e-07)
(1.4830454e-06 1.0882886e-06 1.3456514e-07)
(1.7645803e-06 4.5262795e-07 5.4849375e-08)
(1.7749604e-06 -2.4992687e-07 -2.8797528e-08)
(1.5196985e-06 -9.310693e-07 -1.1350304e-07)
(1.0123501e-06 -1.4912812e-06 -1.7665651e-07)
(3.1688309e-07 -1.8320496e-06 -1.9911335e-07)
(-4.7996392e-07 -1.8646111e-06 -1.7211367e-07)
(-1.2173294e-06 -1.5608936e-06 -1.0857739e-07)
(-1.753324e-06 -9.1149665e-07 -6.2185421e-09)
(-1.9736652e-06 -5.454159e-08 1.0891325e-07)
(-1.7932498e-06 8.1440984e-07 2.1071196e-07)
(-1.2814323e-06 1.4915706e-06 2.7693665e-07)
(-3.9663224e-07 1.1652708e-06 2.0463152e-07)
(1.4695086e-07 1.1936314e-06 1.8510946e-07)
(6.5321257e-07 1.0311749e-06 1.5253658e-07)
(1.0359498e-06 7.1690815e-07 1.0815532e-07)
(1.2301482e-06 3.0058915e-07 5.4453703e-08)
(1.2221907e-06 -1.5948616e-07 -7.3287542e-09)
(1.0261866e-06 -6.0718976e-07 -6.8742738e-08)
(6.6157126e-07 -9.6782488e-07 -1.1231733e-07)
(1.7881833e-07 -1.1760084e-06 -1.2789373e-07)
(-3.4964659e-07 -1.1832097e-06 -1.1277609e-07)
(-8.3179622e-07 -9.5496058e-07 -7.0405249e-08)
(-1.1771204e-06 -5.481085e-07 5.3644882e-10)
(-1.3131439e-06 -1.4700787e-08 7.9224206e-08)
(-1.206883e-06 5.1731276e-07 1.4883162e-07)
(-8.7980594e-07 9.2715395e-07 1.9597182e-07)
(-2.9008959e-07 7.1743607e-07 1.5580246e-07)
(1.016696e-07 7.3997348e-07 1.4291597e-07)
(4.7152525e-07 6.4254867e-07 1.1962921e-07)
(7.5245967e-07 4.4720895e-07 8.6932374e-08)
(8.8818596e-07 1.8748378e-07 4.8388373e-08)
(8.6718148e-07 -1.0071099e-07 3.246268e-09)
(7.1135976e-07 -3.8125008e-07 -4.3457482e-08)
(4.4353147e-07 -6.0387451e-07 -7.6674507e-08)
(1.0149824e-07 -7.270237e-07 -9.0637267e-08)
(-2.5891611e-07 -7.2264721e-07 -8.3476344e-08)
(-5.8222821e-07 -5.7741474e-07 -4.9918446e-08)
(-8.1306417e-07 -3.1870923e-07 3.4655327e-09)
(-9.0824391e-07 6.237056e-09 6.1179237e-08)
(-8.5139511e-07 3.2439739e-07 1.1179173e-07)
(-6.3347433e-07 5.7251111e-07 1.4730291e-07)
(-2.2916988e-07 4.0409431e-07 1.2605967e-07)
(7.206346e-08 4.1243477e-07 1.140747e-07)