/*--------------------------------*- C++ -*----------------------------------*\
| =========                 |                                                 |
| \\      /  F ield         | OpenFOAM: The Open Source CFD Toolbox           |
|  \\    /   O peration     | Version:  3.0.1                                 |
|   \\  /    A nd           | Web:      www.OpenFOAM.org                      |
|    \\/     M anipulation  |                                                 |
\*---------------------------------------------------------------------------*/
FoamFile
{
    version     2.0;
    format      ascii;
    class       surfaceScalarField;
    location    "0.2";
    object      phi;
}
// * * * * * * * * * * * * * * * * * * * * * * * * * * * * * * * * * * * * * //

dimensions      [0 3 -1 0 0 0 0];

internalField   nonuniform List<scalar> 
300
(
0.042910171
0.0039072289
0.15279175
0.049895968
0.035946845
-0.11944656
0.31748018
-0.0050746757
-0.22384192
0.47026051
0.044998809
-0.3186187
0.029549628
-0.055865639
-0.08797597
-0.023531625
0.028012328
-0.064364778
0.014278084
-0.026671177
-0.037453781
0.024987765
-0.077124878
0.019225284
0.045423025
-0.10991612
0.034409954
-0.040864028
-0.055935484
-0.016144203
0.0032669455
-0.044065084
0.0072522807
-0.020986581
-0.025178079
0.022604837
-0.036567996
0.0082494858
0.032891481
-0.048329664
0.027636171
-0.023909322
-0.033129562
-0.0085820394
-0.0023084129
-0.028523586
0.0044109212
-0.010857336
-0.01557805
0.015503583
-0.018601165
0.0032733643
0.021759647
-0.022039886
0.019743906
-0.013395517
-0.020313599
-0.0029674724
-0.017602996
-0.0069609283
-0.0095490191
-0.01024939
0.0013304317
-0.010946483
-0.0074527184
2.0693052
-0.11028089
0.16422972
0.5098462
0.38745172
1.0525559
0.22309439
0.13803216
-0.07505855
0.42303544
0.18616255
-0.70483522
0.031471113
-0.11968642
-0.18360026
-0.0482069
0.025095096
-0.077871518
0.097599033
0.15745508
-0.057829126
0.07541627
-0.034808805
0.068520381
0.1077238
-0.15788514
0.050405442
-0.055576373
-0.082516804
-0.022180128
0.00040350544
-0.058016981
0.02014108
0.031908761
-0.034995601
0.0421753
-0.026315273
0.025604881
0.060659369
-0.061862419
0.038390862
-0.026721209
-0.041845363
-0.0095331626
-0.0066022866
-0.03617301
0.0083129915
-0.0045761233
-0.018739759
0.024316788
-0.018109631
0.011359685
0.033485866
-0.024979879
0.025924127
-0.013494662
-0.024348287
-0.0060342848
-0.020853072
-0.0081807832
-0.010207662
-0.011505017
0.0048129249
-0.011958814
-0.0075204924
1.0741074
-0.26296846
-0.1836055
3.3552926
-0.74113766
-0.48748049
3.1900554
0.16610765
-0.075771925
1.0945696
0.88440962
0.50632342
0.12625743
0.038743433
-0.064878453
-0.08945064
-0.098393619
-0.304382
-0.21135946
-0.13271584
-0.20938742
0.087685952
-0.051167943
0.14964494
0.3055236
0.062020091
0.089301621
0.010972688
-0.046480072
-0.033353485
-0.053340529
-0.12029588
-0.036380572
-0.069202668
-0.074020419
0.050619836
-0.035470425
0.053481564
0.11069049
0.0055197636
0.053940849
-0.0012683935
-0.039304355
-0.0098376307
-0.026675133
-0.050073731
0.0021262615
-0.032304384
-0.025941712
0.030916728
-0.022551931
0.020702831
0.048233615
-0.0091594034
0.032378388
-0.0053826579
-0.026460488
-0.013331103
-0.024189812
-0.016281294
-0.01067762
-0.013575914
0.0092307721
-0.0088175462
-0.0050422251
0.72784916
-0.15832829
-0.49199321
0.74417635
-0.11195599
-0.39190862
0.39466983
0.20598327
0.06774491
0.46761967
0.26876032
0.16468274
0.072727765
0.012745623
-0.096910739
-0.031681947
-0.21244622
-0.1621403
-0.005527305
-0.17395963
-0.065371198
0.10667371
-0.048646043
0.10586734
0.14406959
0.015412307
0.063639278
0.0035824615
-0.067043974
-0.0014138943
-0.092959926
-0.076230815
0.019473507
-0.085072074
-0.027332547
0.063643239
-0.041416171
0.050751993
0.081616548
-0.010168841
0.045871566
-0.0042432296
-0.045232994
0.0050958533
-0.039918942
-0.03864628
0.020831289
-0.040309538
-0.01145112
0.039794245
-0.025963219
0.026622565
0.046439863
-0.012093017
0.031576589
-0.0055257626
-0.02933967
-0.017443724
-0.021419353
-0.019365623
-0.0056651868
-0.014654446
0.013237058
-0.0088396873
-0.0045833666
0.27025273
0.11608041
0.084889003
0.076476488
0.24797287
0.087307793
0.45004793
0.14856969
0.066993087
-0.053612195
0.09504796
-0.042671645
0.088601443
-0.0037466819
0.10332742
0.10513558
0.11482184
0.055862143
-0.059393449
0.053605282
-0.032399476
0.066670741
0.0039584049
0.077563614
0.061727353
0.077618788
0.0441452
-0.046135995
0.028138561
-0.023615599
0.043012068
0.0025315639
0.050815402
0.033933719
0.049054029
0.032246414
-0.03119566
-0.016653562
0.00019927712
0.017537425
)
;

boundaryField
{
    movingWall
    {
        type            calculated;
        value           nonuniform 0();
    }
    CPLReceiveMD
    {
        type            calculated;
        value           uniform 0;
    }
    streamwiseIn
    {
        type            cyclic;
        value           nonuniform 0();
    }
    streamwiseOut
    {
        type            cyclic;
        value           nonuniform 0();
    }
    front
    {
        type            cyclic;
        value           nonuniform 0();
    }
    back
    {
        type            cyclic;
        value           nonuniform 0();
    }
    procBoundary20to2throughback
    {
        type            processorCyclic;
        value           nonuniform List<scalar> 
25
(
-0.89471562
-0.35729498
-0.12472098
-0.04436463
-0.016681833
-0.28289409
-0.19692367
-0.089857974
-0.03900255
-0.01692299
-0.18287435
-0.10343005
-0.051728124
-0.025349947
-0.012458887
-0.18596299
-0.059700525
-0.030856305
-0.01508572
-0.0079071614
-0.021448061
-0.018140566
-0.012755131
-0.0073249429
-0.0042870499
)
;
    }
    procBoundary20to11
    {
        type            processor;
        value           nonuniform List<scalar> 
25
(
0.15190819
0.076479367
-0.038695645
0.12087824
0.046242581
0.030982124
0.024836699
0.020199027
0.052901067
0.022025553
0.0078265269
0.016157234
0.02017118
0.027408202
0.014760729
0.0031672751
0.0091186633
0.012784101
0.014308681
0.0089293035
0.0019446758
0.0051380935
0.0071989722
0.0075524292
0.0052540453
)
;
    }
    procBoundary20to18throughstreamwiseOut
    {
        type            processorCyclic;
        value           nonuniform List<scalar> 
25
(
0.4503934
0.033238002
0.024145276
0.015549957
0.0096561782
0.45541659
0.064370045
0.040420021
0.023927105
0.014006212
0.80994777
0.1200808
0.063338858
0.034173887
0.019092283
0.42097252
0.12239044
0.071480734
0.04105046
0.023372802
0.41734504
0.13814173
0.082099469
0.047561144
0.02707129
)
;
    }
    procBoundary20to19
    {
        type            processor;
        value           nonuniform List<scalar> 
25
(
-0.35137665
0.056504819
0.037540192
0.024762769
0.016831759
-1.9705199
0.12426514
0.059316855
0.033515036
0.021365931
-0.46342212
0.01503609
0.044016373
0.03590563
0.025544409
-0.26106595
0.084236949
0.076411071
0.051884448
0.03328825
0.016718542
0.21944637
0.13245445
0.075984229
0.043725344
)
;
    }
    procBoundary20to23
    {
        type            processor;
        value           nonuniform List<scalar> 
25
(
-0.0039602995
0.0035094236
0.01031567
0.014118248
0.013457909
-0.0034857828
0.0059879322
0.014876473
0.019440432
0.016785111
-0.0016940695
0.0079150139
0.019441889
0.025142161
0.020001917
0.0052216279
0.015897397
0.025069621
0.027619464
0.02098318
0.015004153
0.026091681
0.031633885
0.030679294
0.022298133
)
;
    }
}


// ************************************************************************* //
