/*--------------------------------*- C++ -*----------------------------------*\
| =========                 |                                                 |
| \\      /  F ield         | OpenFOAM: The Open Source CFD Toolbox           |
|  \\    /   O peration     | Version:  3.0.1                                 |
|   \\  /    A nd           | Web:      www.OpenFOAM.org                      |
|    \\/     M anipulation  |                                                 |
\*---------------------------------------------------------------------------*/
FoamFile
{
    version     2.0;
    format      ascii;
    class       volVectorField;
    location    "0.2";
    object      U;
}
// * * * * * * * * * * * * * * * * * * * * * * * * * * * * * * * * * * * * * //

dimensions      [0 1 -1 0 0 0 0];

internalField   nonuniform List<vector> 
125
(
(0.00016361416 1.2529305e-07 -1.4667103e-05)
(0.00012551863 5.1078436e-05 -0.00063744532)
(0.00011534965 -1.6602051e-05 -0.00020130451)
(0.001693847 6.4053399e-05 -0.00048697406)
(0.00051564592 5.1629764e-05 -0.00013278286)
(-0.00018662321 -2.9339276e-05 -4.2472209e-06)
(-0.00019294688 6.3788311e-05 -0.00011978525)
(-0.00013181987 2.1009071e-05 -0.00012686712)
(-2.536437e-05 0.00012084481 -0.00020315894)
(7.0677355e-05 9.3696612e-05 -8.0105972e-05)
(-0.00011784134 -4.959427e-05 -5.4267418e-06)
(-0.00012598272 2.1532256e-05 -5.027446e-05)
(-8.7862632e-05 6.5875805e-05 -7.2186452e-05)
(-2.1748321e-05 9.7750608e-05 -9.5032849e-05)
(4.2097866e-05 7.642396e-05 -4.8842276e-05)
(-7.261675e-05 -3.0772428e-05 -6.680384e-06)
(-7.7588945e-05 1.4333663e-05 -2.5108794e-05)
(-5.5725029e-05 4.7567714e-05 -3.9520956e-05)
(-1.565511e-05 6.7988062e-05 -4.5688931e-05)
(2.4143315e-05 5.8926817e-05 -2.8150915e-05)
(-4.6532067e-05 -1.5528429e-05 -6.0693263e-06)
(-4.7642627e-05 9.9095961e-06 -1.5133296e-05)
(-3.4208295e-05 3.2135794e-05 -2.1887168e-05)
(-1.0389539e-05 4.4573448e-05 -2.3228545e-05)
(1.4226464e-05 4.1323198e-05 -1.5983312e-05)
(0.010492405 -0.00015376739 0.00047184235)
(0.0012609978 0.00053951838 0.0013504264)
(0.00036260783 0.00018977771 -0.00040273345)
(0.00099649166 0.00026853649 -0.0016285754)
(0.00055165079 5.4459105e-05 -0.00027199253)
(-0.00039544283 -0.00021398548 8.4709137e-05)
(-0.00033048118 0.00060924625 0.00019366106)
(-0.00018350333 0.00028334444 -0.00014522476)
(2.5982356e-05 0.00040188354 -0.0003864798)
(0.00019502167 0.00011744823 -0.00013470377)
(-0.00017817339 -8.7456709e-05 8.230092e-06)
(-0.00017732063 9.3604671e-05 2.2146069e-05)
(-0.00011998314 0.00014529922 -7.9324593e-05)
(-4.9410809e-06 0.00020731624 -0.00014427414)
(9.3499231e-05 0.00011060076 -6.5853152e-05)
(-9.440351e-05 -3.8789211e-05 -1.0419222e-05)
(-9.8361903e-05 3.4284369e-05 -1.7916418e-05)
(-6.9892116e-05 8.167441e-05 -4.6013214e-05)
(-9.0617225e-06 0.00011499565 -5.9676328e-05)
(4.5740847e-05 7.9709272e-05 -3.4103084e-05)
(-5.7242104e-05 -1.5750684e-05 -1.1091459e-05)
(-5.6857242e-05 1.7943213e-05 -1.8742532e-05)
(-3.9271946e-05 4.8359502e-05 -2.7223999e-05)
(-6.9063831e-06 6.5027214e-05 -2.8783906e-05)
(2.4073763e-05 5.292272e-05 -1.882903e-05)
(0.001593311 -0.00038750379 -5.6365645e-06)
(0.0019028834 -0.0011069561 0.00074286338)
(0.017440648 0.00024120704 -0.00020974836)
(0.00064464765 0.0013076018 -0.00022931037)
(0.0028185514 0.00018919419 -9.4296693e-05)
(-2.1729927e-05 -0.00049345234 -9.4883092e-05)
(-0.00042158568 -0.0012657439 2.1151157e-05)
(-0.00070184562 0.00034477355 -0.00010627437)
(-1.5489416e-05 0.0016066109 -0.00010946072)
(0.00042784574 0.00030010589 -4.8550324e-05)
(-0.00010677985 -0.00014472266 -6.9813176e-05)
(-0.00021353669 -0.00019004303 -4.9946494e-05)
(-0.000254279 0.00016508731 -7.6574624e-05)
(-8.2771038e-06 0.00042455466 -6.6998347e-05)
(0.00016989916 0.00017702468 -3.1725556e-05)
(-9.3430626e-05 -5.0093968e-05 -4.2789984e-05)
(-0.0001131829 -2.6554891e-05 -4.6867839e-05)
(-9.7484923e-05 9.9668273e-05 -5.0626622e-05)
(-3.7449719e-06 0.00018347822 -4.1685741e-05)
(7.3443809e-05 0.00010595092 -2.2234864e-05)
(-6.5033156e-05 -1.3120024e-05 -2.42591e-05)
(-6.377516e-05 1.4912849e-05 -3.0463945e-05)
(-4.4249664e-05 6.2197138e-05 -3.1301021e-05)
(-1.9945667e-06 8.8794796e-05 -2.5685992e-05)
(3.6105703e-05 6.4605029e-05 -1.51455e-05)
(0.00056746921 -0.00024311951 -0.0009365167)
(0.0028658631 -0.00018286604 -0.001671447)
(0.0013652126 0.00029341296 5.9202975e-06)
(0.00065795565 0.00038856267 0.0012627363)
(0.001192527 0.0001002464 0.00013870283)
(-0.00020749259 -0.00027827904 -0.00041632468)
(-0.00034075505 -0.00018423723 -0.00047861785)
(-0.00031319257 0.00041668202 -0.00012124747)
(8.3461188e-05 0.00056437235 0.00016024137)
(0.00032638921 0.00018005973 4.0327402e-05)
(-0.00017117711 -3.5363757e-05 -0.00019155995)
(-0.00018408148 2.5581948e-05 -0.00020908928)
(-0.00013703467 0.00020094675 -9.5614172e-05)
(3.9907929e-05 0.00027509066 4.6486481e-06)
(0.00016740244 0.00013691608 -6.4620815e-07)
(-0.00011959034 6.7649001e-06 -8.5548568e-05)
(-0.00010619851 5.3766857e-05 -9.4105979e-05)
(-6.4709994e-05 0.00012694799 -6.0506594e-05)
(1.9330049e-05 0.00015630795 -2.4586561e-05)
(8.6745815e-05 9.6289303e-05 -1.1639914e-05)
(-7.8262831e-05 1.3721666e-05 -3.8848905e-05)
(-6.3899154e-05 4.6890268e-05 -4.4750087e-05)
(-3.4493985e-05 8.0447876e-05 -3.5241785e-05)
(9.2491426e-06 9.1205123e-05 -2.1614122e-05)
(4.649423e-05 6.5260799e-05 -1.1305285e-05)
(0.00079696856 0.00013333807 -0.0017020223)
(0.00012490209 8.7191118e-05 -0.00065240587)
(0.0002789051 0.00011396477 -0.00016203751)
(0.0011478232 0.00020390854 -0.00026549479)
(0.0008360628 9.0621203e-05 -3.8165395e-05)
(-0.00033286711 0.00025216174 -0.00070818144)
(-0.0001278126 0.00019791797 -0.00043904865)
(-7.307535e-05 0.00024310978 -0.0001883385)
(0.00014625505 0.00034731254 -9.0611335e-05)
(0.00033257741 0.00016056349 -2.5428706e-05)
(-0.00023402531 0.00018605407 -0.00027328952)
(-0.00011759144 0.00019446981 -0.00021765439)
(-4.0544647e-05 0.00022582856 -0.00011610943)
(8.6690992e-05 0.00023972663 -5.2899941e-05)
(0.00018825556 0.00012505723 -2.1111738e-05)
(-0.00015072959 0.00010261718 -0.00010590335)
(-8.8140906e-05 0.00013778442 -0.0001001104)
(-2.796546e-05 0.0001600407 -6.4083995e-05)
(4.5121726e-05 0.0001572155 -3.3718845e-05)
(0.00010322063 9.5291832e-05 -1.576692e-05)
(-9.3601243e-05 5.4263638e-05 -4.2888816e-05)
(-6.016803e-05 8.677563e-05 -4.5480791e-05)
(-2.1113688e-05 0.00010283029 -3.3873176e-05)
(2.1941938e-05 9.9050636e-05 -2.0840239e-05)
(5.6831047e-05 6.7952142e-05 -1.0967538e-05)
)
;

boundaryField
{
    movingWall
    {
        type            fixedValue;
        value           nonuniform 0();
    }
    CPLReceiveMD
    {
        type            fixedValue;
        value           nonuniform List<vector> 
25
(
(0.53162087 0 0)
(6.2570318 0 0)
(0.49633518 0 0)
(0.81518613 0 0)
(0.42296119 0 0)
(0.31149252 0 0)
(2.6731917 0 0)
(0.48513287 0 0)
(0.90100232 0 0)
(0.11529429 0 0)
(0.053830675 0 0)
(0.3244906 0 0)
(0.41380374 0 0)
(0.82298634 0 0)
(0.70999327 0 0)
(0.44025449 0 0)
(0.58682998 0 0)
(0.93964006 0 0)
(0.73326658 0 0)
(1.0237326 0 0)
(0.78689151 0 0)
(0.14082577 0 0)
(2.1076444 0 0)
(0.54126493 0 0)
(0.18068417 0 0)
)
;
    }
    streamwiseIn
    {
        type            cyclic;
    }
    streamwiseOut
    {
        type            cyclic;
    }
    front
    {
        type            cyclic;
    }
    back
    {
        type            cyclic;
    }
    procBoundary20to2throughback
    {
        type            processorCyclic;
        value           nonuniform List<vector> 
25
(
(0.00097485116 0.00075171109 -0.0050614464)
(-0.00039059793 0.0011514402 -0.0011801809)
(-0.00028681349 0.00056691471 -0.00031004543)
(-0.00017854325 0.00023716571 -9.2417821e-05)
(-0.00010653278 0.00010118516 -3.1255448e-05)
(0.0025240429 3.0794154e-05 -0.0012360754)
(0.00017792083 0.00025081711 -0.00052587518)
(-2.6901872e-05 0.0003645204 -0.0001961296)
(-6.4379127e-05 0.00022594051 -7.4286258e-05)
(-5.4883505e-05 0.0001258504 -2.9704479e-05)
(0.0061538177 0.00026705941 -0.00030920486)
(3.7500732e-05 0.00046255831 -0.00017857336)
(2.7720793e-05 0.00032520125 -8.7831762e-05)
(1.6816014e-06 0.00020918426 -4.1937231e-05)
(-9.8534227e-06 0.00012686965 -2.0131192e-05)
(0.00064376164 0.00056353816 -0.00011288944)
(0.00024636109 0.00077706243 -7.1191113e-05)
(0.0001349057 0.0003319831 -4.1070903e-05)
(6.7647142e-05 0.00018836763 -2.3128421e-05)
(3.2154785e-05 0.00011268246 -1.2543342e-05)
(0.0011576599 0.00011297902 -8.5511838e-06)
(0.00045105914 0.00019710765 -3.5777414e-05)
(0.00022993993 0.00014657781 -2.4944624e-05)
(0.00012060697 0.00010643349 -1.4185337e-05)
(6.5074184e-05 7.402342e-05 -7.7268941e-06)
)
;
    }
    procBoundary20to11
    {
        type            processor;
        value           nonuniform List<vector> 
25
(
(5.4828514e-05 -0.00016407983 -0.00036570161)
(0.0021184644 2.1424595e-05 -5.5144351e-05)
(5.9801082e-05 0.00011513096 0.00015404136)
(0.0010375883 -1.5753222e-05 -0.00027858878)
(0.0007451201 1.5798109e-06 -6.888232e-06)
(-0.00013698168 -0.00022313019 -7.6431996e-05)
(-0.00020768777 2.1644938e-05 -6.037026e-05)
(-0.00010017075 0.00015401772 -4.4651587e-05)
(-2.0794549e-05 9.4717039e-06 -9.6742597e-05)
(-5.6441394e-06 3.330505e-05 -1.6587312e-05)
(-8.4577015e-05 -8.5023495e-05 -1.896549e-05)
(-0.00011056091 -1.0718851e-06 -3.6862733e-05)
(-7.5224821e-05 5.7952933e-05 -4.2025756e-05)
(-2.8285319e-05 4.9846129e-05 -5.0131454e-05)
(9.8126876e-06 5.8645658e-05 -2.0210579e-05)
(-5.5519813e-05 -3.8146632e-05 -6.4027922e-06)
(-6.5521346e-05 -8.5679143e-07 -1.8625772e-05)
(-4.9311992e-05 3.1375124e-05 -2.521694e-05)
(-2.0431773e-05 4.3191357e-05 -2.6687397e-05)
(9.9698435e-06 4.6850315e-05 -1.4947791e-05)
(-3.7764294e-05 -1.7936294e-05 -3.1206422e-06)
(-4.1039405e-05 2.1018029e-06 -9.6049493e-06)
(-3.1176701e-05 2.1212715e-05 -1.358439e-05)
(-1.2810241e-05 3.1824967e-05 -1.3929026e-05)
(7.661071e-06 3.3942654e-05 -9.3360406e-06)
)
;
    }
    procBoundary20to18throughstreamwiseOut
    {
        type            processorCyclic;
        value           nonuniform List<vector> 
25
(
(0.0018157264 3.0113967e-05 5.885197e-05)
(0.00011113597 5.843293e-05 -2.2704166e-06)
(7.4368535e-05 5.1324303e-05 -1.1346251e-05)
(4.8036402e-05 4.0116699e-05 -9.9179323e-06)
(3.0847618e-05 2.9301823e-05 -6.8158545e-06)
(0.00188441 2.1368554e-05 -5.3800259e-05)
(0.00015590372 5.3234108e-05 -2.9511014e-05)
(0.00010546127 5.8072845e-05 -1.6472886e-05)
(6.5818685e-05 4.5570219e-05 -1.0375838e-05)
(4.0538317e-05 3.3028926e-05 -6.9046697e-06)
(0.002148867 5.4444552e-05 3.0282054e-05)
(0.00026856379 9.5801738e-05 2.1766862e-05)
(0.00015349732 7.0459468e-05 6.9048568e-06)
(8.8847983e-05 4.9684909e-05 -6.80772e-07)
(5.2362783e-05 3.5124526e-05 -3.2655271e-06)
(0.0011561111 1.2835252e-05 0.00015018947)
(0.00030868878 2.9838849e-05 6.5167619e-05)
(0.00018088439 3.5625146e-05 2.3005054e-05)
(0.00010667688 3.5399822e-05 5.1902541e-06)
(6.2795528e-05 3.0352844e-05 -8.887794e-07)
(0.0011835887 -3.0664563e-05 7.7396344e-05)
(0.0003380986 -3.1471475e-05 3.4188399e-05)
(0.00020238076 1.0482029e-05 9.6375625e-06)
(0.00012010183 2.5791064e-05 1.4230629e-07)
(7.1399298e-05 2.7570146e-05 -2.2602864e-06)
)
;
    }
    procBoundary20to19
    {
        type            processor;
        value           nonuniform List<vector> 
25
(
(0.0014648312 -3.7872758e-05 0.0007051285)
(-7.3727765e-05 -9.4099322e-05 0.00014382916)
(-5.4562709e-05 -9.2628398e-05 4.3323834e-05)
(-4.2758984e-05 -5.6975679e-05 1.377492e-05)
(-3.2686417e-05 -3.2083488e-05 4.3445169e-06)
(0.00029098816 -0.00064283463 6.1525753e-05)
(-9.6391169e-05 -0.00079561074 2.8838199e-05)
(-8.0114342e-05 -0.00021267628 1.1084505e-05)
(-5.9966942e-05 -8.6648854e-05 2.8974631e-06)
(-4.3315329e-05 -3.9910586e-05 -2.4143985e-07)
(0.00075560663 -7.0686948e-05 -0.0007780312)
(-5.6318158e-05 -0.00014466828 -0.0001718249)
(-8.9601527e-05 -0.00011856919 -5.6944482e-05)
(-7.7355066e-05 -6.8301615e-05 -2.1681e-05)
(-5.6530249e-05 -3.5912e-05 -9.4432129e-06)
(0.00035102819 -3.6021179e-05 -0.00025204159)
(-0.00022617354 -7.3919831e-05 -0.00016716077)
(-0.00018002309 -6.2531966e-05 -8.1843671e-05)
(-0.00012219117 -3.9147534e-05 -3.6807008e-05)
(-7.8708043e-05 -2.284281e-05 -1.6181994e-05)
(-0.00068259454 1.4423351e-05 -0.00056626662)
(-0.00061669677 2.5759761e-05 -0.00025573279)
(-0.00034672407 1.1784819e-05 -0.00010201794)
(-0.00019183119 -2.6398989e-06 -4.115748e-05)
(-0.00010843376 -6.5420624e-06 -1.7210836e-05)
)
;
    }
    procBoundary20to23
    {
        type            processor;
        value           nonuniform List<vector> 
25
(
(-3.0623673e-05 -6.9373303e-06 -4.4947759e-06)
(-2.9924728e-05 8.0392738e-06 -9.2673845e-06)
(-2.1061182e-05 2.1593443e-05 -1.2374169e-05)
(-6.4677107e-06 2.9151588e-05 -1.248668e-05)
(8.8716866e-06 2.8106458e-05 -9.170847e-06)
(-3.6549729e-05 -5.2155014e-06 -8.0108197e-06)
(-3.4251731e-05 1.3354589e-05 -1.2913165e-05)
(-2.2808125e-05 3.0280883e-05 -1.5951864e-05)
(-4.4985138e-06 3.8845422e-05 -1.5454967e-05)
(1.374255e-05 3.4435275e-05 -1.0821248e-05)
(-4.2605784e-05 -8.3453138e-07 -1.3317644e-05)
(-3.786577e-05 1.8881223e-05 -1.7920786e-05)
(-2.3602982e-05 3.9544976e-05 -1.8538245e-05)
(-1.3370934e-06 4.9212965e-05 -1.5507822e-05)
(1.9773521e-05 4.0601258e-05 -9.8967801e-06)
(-4.985728e-05 1.1739698e-05 -1.8164928e-05)
(-3.9472328e-05 3.3655251e-05 -2.2243219e-05)
(-2.0395158e-05 5.0863714e-05 -1.9873448e-05)
(4.1429523e-06 5.5318599e-05 -1.4330722e-05)
(2.5893521e-05 4.3343228e-05 -8.2927978e-06)
(-5.7411922e-05 2.9109668e-05 -1.843988e-05)
(-3.9574287e-05 5.2196805e-05 -2.115028e-05)
(-1.5690482e-05 6.3761827e-05 -1.7662218e-05)
(1.0243558e-05 6.2138239e-05 -1.2241503e-05)
(3.174012e-05 4.6407836e-05 -7.0042951e-06)
)
;
    }
}


// ************************************************************************* //
