# Coordinates of a bcc lattice for 497 spheres of diameter 30000000000.000000
1 atom types
497 atoms
#porosity is xxx
0.000000 0.032121 xlo xhi
0.000000 0.006425 ylo yhi
0.000000 0.006436 zlo zhi

Atoms

1 1 0.001745 30000000000 0.01438734 0.00018600 0.00433200
2 1 0.001718 30000000000 0.01403734 0.00316100 0.00231700
3 1 0.001718 30000000000 0.01615234 0.00039900 0.00349600
4 1 0.001664 30000000000 0.01330034 0.00588700 0.00542600
5 1 0.001663 30000000000 0.01693634 0.00539300 0.00399800
6 1 0.001656 30000000000 0.01802434 0.00425200 0.00451400
7 1 0.001613 30000000000 0.01389334 0.00314600 0.00065800
8 1 0.001609 30000000000 0.01351334 0.00159000 0.00462900
9 1 0.001586 30000000000 0.01580134 0.00273500 0.00401600
10 1 0.001573 30000000000 0.01886234 0.00330400 0.00629600
11 1 0.001573 30000000000 0.01913634 0.00563600 0.00047700
12 1 0.001570 30000000000 0.01821034 0.00048300 0.00017900
13 1 0.001549 30000000000 0.01876334 0.00089200 0.00258900
14 1 0.001531 30000000000 0.01565734 0.00044800 0.00027000
15 1 0.001528 30000000000 0.01826234 0.00605400 0.00182100
16 1 0.001524 30000000000 0.01901034 0.00279000 0.00144900
17 1 0.001524 30000000000 0.01505734 0.00160800 0.00591400
18 1 0.001490 30000000000 0.01530434 0.00213000 0.00265100
19 1 0.001472 30000000000 0.01585734 0.00425900 0.00391000
20 1 0.001465 30000000000 0.01715134 0.00383700 0.00157400
21 1 0.001464 30000000000 0.01404234 0.00459700 0.00590800
22 1 0.001454 30000000000 0.01651234 0.00350000 0.00284500
23 1 0.001453 30000000000 0.01764834 0.00003600 0.00311600
24 1 0.001449 30000000000 0.01913034 0.00397400 0.00346100
25 1 0.001446 30000000000 0.01586534 0.00443500 0.00080700
26 1 0.001433 30000000000 0.01352634 0.00018000 0.00200800
27 1 0.001433 30000000000 0.01464834 0.00473800 0.00228800
28 1 0.001429 30000000000 0.01791634 0.00177700 0.00087500
29 1 0.001428 30000000000 0.01685934 0.00166700 0.00411200
30 1 0.001418 30000000000 0.01587834 0.00414600 0.00584000
31 1 0.001410 30000000000 0.01332234 0.00361200 0.00511900
32 1 0.001379 30000000000 0.01483634 0.00479800 0.00474700
33 1 0.001356 30000000000 0.01879034 0.00029300 0.00391200
34 1 0.001356 30000000000 0.01835834 0.00531300 0.00349900
35 1 0.001351 30000000000 0.01763934 0.00609100 0.00552600
36 1 0.001310 30000000000 0.01372034 0.00525000 0.00415000
37 1 0.001303 30000000000 0.01897834 0.00203500 0.00563000
38 1 0.001265 30000000000 0.01725434 0.00135900 0.00285700
39 1 0.001258 30000000000 0.01483334 0.00089100 0.00301400
40 1 0.001256 30000000000 0.01763034 0.00057700 0.00446100
41 1 0.001255 30000000000 0.01400834 0.00183800 0.00299400
42 1 0.001251 30000000000 0.01639434 0.00636100 0.00150700
43 1 0.001247 30000000000 0.01288434 0.00267400 0.00382500
44 1 0.001242 30000000000 0.01411534 0.00285700 0.00437200
45 1 0.001239 30000000000 0.01663134 0.00573300 0.00262000
46 1 0.001232 30000000000 0.01847934 0.00511100 0.00558200
47 1 0.001225 30000000000 0.01729434 0.00302800 0.00382400
48 1 0.001212 30000000000 0.01650334 0.00263700 0.00522200
49 1 0.001212 30000000000 0.01396334 0.00175600 0.00089600
50 1 0.001199 30000000000 0.01527334 0.00558100 0.00051500
51 1 0.001197 30000000000 0.01316834 0.00432900 0.00043800
52 1 0.001191 30000000000 0.01793334 0.00300000 0.00224700
53 1 0.001184 30000000000 0.01554734 0.00567300 0.00413800
54 1 0.001176 30000000000 0.01368734 0.00430500 0.00150400
55 1 0.001171 30000000000 0.01619834 0.00220200 0.00631600
56 1 0.001170 30000000000 0.01525034 0.00607000 0.00570000
57 1 0.001170 30000000000 0.01295934 0.00078900 0.00578500
58 1 0.001148 30000000000 0.01446334 0.00596200 0.00265000
59 1 0.001141 30000000000 0.01755034 0.00466200 0.00634900
60 1 0.001141 30000000000 0.01914934 0.00390200 0.00216900
61 1 0.001138 30000000000 0.01395834 0.00423900 0.00325000
62 1 0.001135 30000000000 0.01659634 0.00107100 0.00181300
63 1 0.001130 30000000000 0.01636534 0.00480400 0.00193500
64 1 0.001118 30000000000 0.01356434 0.00030800 0.00054100
65 1 0.001113 30000000000 0.01805434 0.00413000 0.00244500
66 1 0.001111 30000000000 0.01561534 0.00078900 0.00474500
67 1 0.001111 30000000000 0.01483234 0.00035100 0.00196000
68 1 0.001110 30000000000 0.01735634 0.00340800 0.00538300
69 1 0.001108 30000000000 0.01917734 0.00546400 0.00256300
70 1 0.001107 30000000000 0.01842934 0.00143300 0.00473400
71 1 0.001104 30000000000 0.01890934 0.00153000 0.00374300
72 1 0.001089 30000000000 0.01627334 0.00033500 0.00555500
73 1 0.001089 30000000000 0.01661834 0.00116200 0.00617400
74 1 0.001086 30000000000 0.01446634 0.00138500 0.00201700
75 1 0.001086 30000000000 0.01494034 0.00382300 0.00147300
76 1 0.001086 30000000000 0.01393934 0.00578800 0.00096600
77 1 0.001084 30000000000 0.01745134 0.00518800 0.00127900
78 1 0.001081 30000000000 0.01758334 0.00361000 0.00037500
79 1 0.001080 30000000000 0.01362334 0.00535700 0.00190800
80 1 0.001078 30000000000 0.01481634 0.00360800 0.00356700
81 1 0.001074 30000000000 0.01527234 0.00365800 0.00486700
82 1 0.001066 30000000000 0.01652334 0.00225200 0.00301500
83 1 0.001065 30000000000 0.01554734 0.00609600 0.00247600
84 1 0.001062 30000000000 0.01474734 0.00355200 0.00599000
85 1 0.001062 30000000000 0.01616534 0.00580900 0.00506500
86 1 0.001059 30000000000 0.01617834 0.00155000 0.00527400
87 1 0.001057 30000000000 0.01545334 0.00288100 0.00557400
88 1 0.001057 30000000000 0.01729234 0.00200300 0.00626100
89 1 0.001056 30000000000 0.01467134 0.00474800 0.00100600
90 1 0.001043 30000000000 0.01762134 0.00073400 0.00195900
91 1 0.001040 30000000000 0.01664834 0.00355800 0.00458800
92 1 0.001020 30000000000 0.01613234 0.00577100 0.00627500
93 1 0.001019 30000000000 0.01612134 0.00149600 0.00082800
94 1 0.001016 30000000000 0.01917234 0.00291800 0.00270200
95 1 0.001011 30000000000 0.01444234 0.00091600 0.00034400
96 1 0.001007 30000000000 0.01594434 0.00361000 0.00171000
97 1 0.001005 30000000000 0.01472334 0.00227900 0.00153900
98 1 0.001001 30000000000 0.01720234 0.00234000 0.00168200
99 1 0.000999 30000000000 0.01295734 0.00096000 0.00119800
100 1 0.000995 30000000000 0.01455734 0.00045200 0.00589800
101 1 0.000994 30000000000 0.01451334 0.00634100 0.00029800
102 1 0.000993 30000000000 0.01414034 0.00396800 0.00426300
103 1 0.000975 30000000000 0.01788234 0.00225500 0.00434000
104 1 0.000969 30000000000 0.01719034 0.00179200 0.00527500
105 1 0.000969 30000000000 0.01489134 0.00221400 0.00055400
106 1 0.000962 30000000000 0.01297634 0.00581900 0.00350900
107 1 0.000960 30000000000 0.01750134 0.00587000 0.00031100
108 1 0.000956 30000000000 0.01843734 0.00078400 0.00138400
109 1 0.000950 30000000000 0.01326434 0.00091900 0.00347000
110 1 0.000939 30000000000 0.01909234 0.00454800 0.00135600
111 1 0.000937 30000000000 0.01860934 0.00384600 0.00096300
112 1 0.000935 30000000000 0.01667134 0.00230100 0.00087300
113 1 0.000934 30000000000 0.01292934 0.00193400 0.00226100
114 1 0.000929 30000000000 0.01479334 0.00139400 0.00473600
115 1 0.000924 30000000000 0.01748434 0.00477600 0.00300200
116 1 0.000922 30000000000 0.01802634 0.00106500 0.00357200
117 1 0.000920 30000000000 0.01466234 0.00554400 0.00358400
118 1 0.000920 30000000000 0.01819934 0.00066300 0.00538300
119 1 0.000912 30000000000 0.01390134 0.00034500 0.00310700
120 1 0.000909 30000000000 0.01502634 0.00367300 0.00049100
121 1 0.000905 30000000000 0.01837034 0.00280300 0.00512300
122 1 0.000900 30000000000 0.01450434 0.00145600 0.00387100
123 1 0.000900 30000000000 0.01530434 0.00378000 0.00239600
124 1 0.000897 30000000000 0.01881234 0.00160500 0.00159600
125 1 0.000896 30000000000 0.01536234 0.00590600 0.00153200
126 1 0.000895 30000000000 0.01673834 0.00636600 0.00048600
127 1 0.000894 30000000000 0.01855534 0.00489700 0.00202200
128 1 0.000885 30000000000 0.01390734 0.00112300 0.00599800
129 1 0.000884 30000000000 0.01846134 0.00210800 0.00227400
130 1 0.000878 30000000000 0.01735634 0.00401400 0.00346400
131 1 0.000873 30000000000 0.01456934 0.00268000 0.00339600
132 1 0.000871 30000000000 0.01753834 0.00114200 0.00583800
133 1 0.000867 30000000000 0.01686934 0.00425500 0.00520100
134 1 0.000866 30000000000 0.01437534 0.00570200 0.00606700
135 1 0.000866 30000000000 0.01803834 0.00402000 0.00575300
136 1 0.000863 30000000000 0.01755134 0.00285900 0.00099100
137 1 0.000862 30000000000 0.01882734 0.00328200 0.00453900
138 1 0.000858 30000000000 0.01337234 0.00254700 0.00611700
139 1 0.000853 30000000000 0.01690034 0.00094200 0.00512900
140 1 0.000850 30000000000 0.01787134 0.00270300 0.00021200
141 1 0.000850 30000000000 0.01577534 0.00244100 0.00076600
142 1 0.000849 30000000000 0.01505634 0.00297400 0.00102300
143 1 0.000846 30000000000 0.01798834 0.00549200 0.00467400
144 1 0.000844 30000000000 0.01671734 0.00398700 0.00018800
145 1 0.000842 30000000000 0.01609834 0.00488300 0.00485400
146 1 0.000840 30000000000 0.01563634 0.00211800 0.00153400
147 1 0.000840 30000000000 0.01587034 0.00052200 0.00219600
148 1 0.000838 30000000000 0.01699334 0.00545100 0.00613500
149 1 0.000838 30000000000 0.01607734 0.00272100 0.00191700
150 1 0.000838 30000000000 0.01399634 0.00521700 0.00311200
151 1 0.000836 30000000000 0.01890334 0.00030300 0.00500200
152 1 0.000835 30000000000 0.01796834 0.00250800 0.00583500
153 1 0.000832 30000000000 0.01403334 0.00294200 0.00576900
154 1 0.000829 30000000000 0.01559634 0.00516400 0.00545900
155 1 0.000828 30000000000 0.01382934 0.00194000 0.00575300
156 1 0.000825 30000000000 0.01915234 0.00504700 0.00469000
157 1 0.000825 30000000000 0.01698734 0.00457500 0.00071400
158 1 0.000823 30000000000 0.01792034 0.00346400 0.00314100
159 1 0.000820 30000000000 0.01521134 0.00298700 0.00184300
160 1 0.000818 30000000000 0.01871634 0.00156400 0.00011600
161 1 0.000818 30000000000 0.01838734 0.00504500 0.00119600
162 1 0.000817 30000000000 0.01501634 0.00442700 0.00005800
163 1 0.000816 30000000000 0.01638934 0.00512600 0.00567400
164 1 0.000813 30000000000 0.01737234 0.00480000 0.00214100
165 1 0.000811 30000000000 0.01792134 0.00225200 0.00291100
166 1 0.000808 30000000000 0.01875934 0.00448900 0.00634000
167 1 0.000806 30000000000 0.01297034 0.00240000 0.00042000
168 1 0.000802 30000000000 0.01777734 0.00441400 0.00082400
169 1 0.000802 30000000000 0.01675134 0.00328200 0.00067000
170 1 0.000800 30000000000 0.01419534 0.00217400 0.00001100
171 1 0.000798 30000000000 0.01710734 0.00062600 0.00112300
172 1 0.000798 30000000000 0.01816434 0.00434000 0.00152000
173 1 0.000795 30000000000 0.01383334 0.00596800 0.00338900
174 1 0.000794 30000000000 0.01890834 0.00209900 0.00298400
175 1 0.000792 30000000000 0.01882134 0.00416200 0.00548200
176 1 0.000791 30000000000 0.01837434 0.00236400 0.00356200
177 1 0.000791 30000000000 0.01624434 0.00143200 0.00268400
178 1 0.000787 30000000000 0.01476334 0.00039600 0.00100500
179 1 0.000783 30000000000 0.01901934 0.00182000 0.00081100
180 1 0.000783 30000000000 0.01794934 0.00609400 0.00412700
181 1 0.000781 30000000000 0.01862234 0.00604200 0.00593600
182 1 0.000780 30000000000 0.01916334 0.00536200 0.00162100
183 1 0.000778 30000000000 0.01295734 0.00471600 0.00538200
184 1 0.000777 30000000000 0.01307734 0.00015800 0.00310700
185 1 0.000775 30000000000 0.01307934 0.00172000 0.00003400
186 1 0.000772 30000000000 0.01295534 0.00261500 0.00486900
187 1 0.000772 30000000000 0.01321434 0.00044100 0.00470700
188 1 0.000768 30000000000 0.01623534 0.00296900 0.00117000
189 1 0.000767 30000000000 0.01535434 0.00112400 0.00206400
190 1 0.000766 30000000000 0.01599234 0.00541200 0.00131000
191 1 0.000766 30000000000 0.01712234 0.00027500 0.00624600
192 1 0.000765 30000000000 0.01898534 0.00017500 0.00112000
193 1 0.000762 30000000000 0.01720234 0.00637500 0.00210700
194 1 0.000762 30000000000 0.01558834 0.00169800 0.00452300
195 1 0.000761 30000000000 0.01620334 0.00312300 0.00602600
196 1 0.000761 30000000000 0.01757834 0.00254500 0.00509900
197 1 0.000760 30000000000 0.01426034 0.00231200 0.00519900
198 1 0.000759 30000000000 0.01552334 0.00327600 0.00638900
199 1 0.000758 30000000000 0.01463934 0.00550400 0.00150500
200 1 0.000751 30000000000 0.01778634 0.00186600 0.00357600
201 1 0.000742 30000000000 0.01519234 0.00539500 0.00296200
202 1 0.000740 30000000000 0.01830034 0.00483900 0.00045100
203 1 0.000738 30000000000 0.01649434 0.00043100 0.00467400
204 1 0.000736 30000000000 0.01582134 0.00516900 0.00264600
205 1 0.000735 30000000000 0.01806634 0.00150200 0.00191100
206 1 0.000733 30000000000 0.01641534 0.00197600 0.00162900
207 1 0.000731 30000000000 0.01377134 0.00595400 0.00008900
208 1 0.000730 30000000000 0.01316334 0.00181200 0.00144600
209 1 0.000729 30000000000 0.01618834 0.00581200 0.00071000
210 1 0.000729 30000000000 0.01367834 0.00117700 0.00162000
211 1 0.000728 30000000000 0.01661134 0.00521500 0.00094100
212 1 0.000728 30000000000 0.01540034 0.00057800 0.00561400
213 1 0.000728 30000000000 0.01514634 0.00140500 0.00058200
214 1 0.000727 30000000000 0.01922834 0.00573000 0.00433000
215 1 0.000725 30000000000 0.01353934 0.00252600 0.00533100
216 1 0.000724 30000000000 0.01926734 0.00104300 0.00025300
217 1 0.000721 30000000000 0.01533534 0.00510000 0.00147800
218 1 0.000719 30000000000 0.01423934 0.00096000 0.00528600
219 1 0.000719 30000000000 0.01812034 0.00539000 0.00000900
220 1 0.000718 30000000000 0.01555534 0.00437100 0.00184100
221 1 0.000715 30000000000 0.01498334 0.00281200 0.00482200
222 1 0.000715 30000000000 0.01302134 0.00422000 0.00593600
223 1 0.000713 30000000000 0.01811434 0.00432100 0.00333500
224 1 0.000713 30000000000 0.01521234 0.00104900 0.00396800
225 1 0.000712 30000000000 0.01570634 0.00335200 0.00080500
226 1 0.000710 30000000000 0.01709634 0.00271700 0.00030500
227 1 0.000709 30000000000 0.01439034 0.00416500 0.00040600
228 1 0.000706 30000000000 0.01779234 0.00310100 0.00464800
229 1 0.000704 30000000000 0.01566234 0.00222200 0.00503000
230 1 0.000704 30000000000 0.01851834 0.00308800 0.00342900
231 1 0.000703 30000000000 0.01587634 0.00081900 0.00130000
232 1 0.000701 30000000000 0.01354334 0.00117300 0.00026400
233 1 0.000699 30000000000 0.01588434 0.00555600 0.00324700
234 1 0.000699 30000000000 0.01874334 0.00469900 0.00277000
235 1 0.000697 30000000000 0.01534334 0.00257000 0.00638800
236 1 0.000696 30000000000 0.01872434 0.00566000 0.00482800
237 1 0.000693 30000000000 0.01548634 0.00024300 0.00134900
238 1 0.000692 30000000000 0.01536334 0.00314400 0.00304800
239 1 0.000691 30000000000 0.01759534 0.00509800 0.00520400
240 1 0.000687 30000000000 0.01559134 0.00508800 0.00621300
241 1 0.000686 30000000000 0.01289834 0.00500900 0.00363800
242 1 0.000684 30000000000 0.01829434 0.00634700 0.00472300
243 1 0.000682 30000000000 0.01834834 0.00288700 0.00408000
244 1 0.000681 30000000000 0.01343634 0.00343900 0.00402200
245 1 0.000679 30000000000 0.01515234 0.00426000 0.00308300
246 1 0.000678 30000000000 0.01322134 0.00629200 0.00426500
247 1 0.000678 30000000000 0.01306334 0.00163200 0.00299600
248 1 0.000677 30000000000 0.01299434 0.00476400 0.00206400
249 1 0.000677 30000000000 0.01614034 0.00299000 0.00037400
250 1 0.000676 30000000000 0.01396434 0.00340100 0.00359800
251 1 0.000676 30000000000 0.01822434 0.00316300 0.00077600
252 1 0.000674 30000000000 0.01461234 0.00108300 0.00120300
253 1 0.000673 30000000000 0.01757134 0.00557700 0.00253200
254 1 0.000673 30000000000 0.01708634 0.00487600 0.00560000
255 1 0.000672 30000000000 0.01485734 0.00482100 0.00331600
256 1 0.000671 30000000000 0.01769034 0.00198400 0.00226000
257 1 0.000669 30000000000 0.01621734 0.00496200 0.00318700
258 1 0.000669 30000000000 0.01807334 0.00561000 0.00083000
259 1 0.000667 30000000000 0.01733634 0.00117600 0.00024300
260 1 0.000662 30000000000 0.01532134 0.00599500 0.00330300
261 1 0.000661 30000000000 0.01508134 0.00481300 0.00586800
262 1 0.000661 30000000000 0.01717334 0.00313800 0.00620600
263 1 0.000661 30000000000 0.01807534 0.00205800 0.00524700
264 1 0.000660 30000000000 0.01399734 0.00084400 0.00110200
265 1 0.000659 30000000000 0.01355534 0.00144300 0.00224900
266 1 0.000658 30000000000 0.01381234 0.00276300 0.00347500
267 1 0.000658 30000000000 0.01673934 0.00358600 0.00599000
268 1 0.000657 30000000000 0.01825734 0.00415500 0.00031900
269 1 0.000656 30000000000 0.01828534 0.00130100 0.00586400
270 1 0.000655 30000000000 0.01343434 0.00096800 0.00268700
271 1 0.000655 30000000000 0.01804634 0.00511500 0.00256400
272 1 0.000653 30000000000 0.01817434 0.00187300 0.00616300
273 1 0.000652 30000000000 0.01696234 0.00124900 0.00078100
274 1 0.000651 30000000000 0.01726034 0.00603100 0.00121200
275 1 0.000651 30000000000 0.01333634 0.00487500 0.00315100
276 1 0.000651 30000000000 0.01854634 0.00346600 0.00275200
277 1 0.000651 30000000000 0.01457034 0.00310100 0.00528400
278 1 0.000651 30000000000 0.01672534 0.00441900 0.00331700
279 1 0.000651 30000000000 0.01692834 0.00424700 0.00415300
280 1 0.000649 30000000000 0.01350134 0.00502800 0.00097600
281 1 0.000648 30000000000 0.01694934 0.00547400 0.00515000
282 1 0.000646 30000000000 0.01305534 0.00454100 0.00427000
283 1 0.000645 30000000000 0.01657234 0.00498500 0.00026800
284 1 0.000645 30000000000 0.01675234 0.00559300 0.00038500
285 1 0.000643 30000000000 0.01694934 0.00167600 0.00126700
286 1 0.000641 30000000000 0.01503834 0.00213700 0.00479200
287 1 0.000639 30000000000 0.01602534 0.00177000 0.00351100
288 1 0.000639 30000000000 0.01672934 0.00481800 0.00280500
289 1 0.000638 30000000000 0.01720734 0.00234900 0.00250900
290 1 0.000637 30000000000 0.01681934 0.00634900 0.00502800
291 1 0.000636 30000000000 0.01618734 0.00448800 0.00273900
292 1 0.000636 30000000000 0.01354734 0.00484100 0.00501500
293 1 0.000632 30000000000 0.01679234 0.00184600 0.00218700
294 1 0.000631 30000000000 0.01680234 0.00553900 0.00171900
295 1 0.000630 30000000000 0.01690734 0.00420500 0.00594600
296 1 0.000629 30000000000 0.01545934 0.00534500 0.00209500
297 1 0.000629 30000000000 0.01723334 0.00083100 0.00364400
298 1 0.000628 30000000000 0.01488834 0.00079000 0.00522200
299 1 0.000627 30000000000 0.01370334 0.00038000 0.00609300
300 1 0.000626 30000000000 0.01326734 0.00185800 0.00357300
301 1 0.000625 30000000000 0.01699834 0.00053300 0.00247600
302 1 0.000624 30000000000 0.01372434 0.00430200 0.00240300
303 1 0.000623 30000000000 0.01804834 0.00329100 0.00139300
304 1 0.000623 30000000000 0.01460634 0.00398300 0.00528000
305 1 0.000623 30000000000 0.01439734 0.00622000 0.00545400
306 1 0.000623 30000000000 0.01516534 0.00155900 0.00155600
307 1 0.000622 30000000000 0.01735134 0.00281100 0.00292800
308 1 0.000621 30000000000 0.01741234 0.00007100 0.00080500
309 1 0.000620 30000000000 0.01494534 0.00211300 0.00370300
310 1 0.000618 30000000000 0.01731734 0.00227600 0.00329300
311 1 0.000617 30000000000 0.01341334 0.00323400 0.00330100
312 1 0.000615 30000000000 0.01576334 0.00140400 0.00158300
313 1 0.000615 30000000000 0.01285534 0.00603600 0.00148500
314 1 0.000615 30000000000 0.01461534 0.00503100 0.00022200
315 1 0.000615 30000000000 0.01779834 0.00316700 0.00608300
316 1 0.000614 30000000000 0.01471034 0.00260100 0.00622000
317 1 0.000613 30000000000 0.01648634 0.00019500 0.00239800
318 1 0.000613 30000000000 0.01910034 0.00435100 0.00486100
319 1 0.000611 30000000000 0.01586234 0.00641400 0.00454600
320 1 0.000609 30000000000 0.01567934 0.00312600 0.00236500
321 1 0.000609 30000000000 0.01496834 0.00576800 0.00491200
322 1 0.000606 30000000000 0.01391734 0.00358300 0.00607400
323 1 0.000606 30000000000 0.01548834 0.00480700 0.00310700
324 1 0.000606 30000000000 0.01312734 0.00453400 0.00266300
325 1 0.000605 30000000000 0.01556334 0.00138800 0.00334400
326 1 0.000604 30000000000 0.01838834 0.00362700 0.00177900
327 1 0.000604 30000000000 0.01489934 0.00297600 0.00022500
328 1 0.000603 30000000000 0.01831034 0.00169100 0.00315600
329 1 0.000602 30000000000 0.01908134 0.00089100 0.00463000
330 1 0.000601 30000000000 0.01858934 0.00613200 0.00525200
331 1 0.000601 30000000000 0.01362834 0.00487500 0.00259700
332 1 0.000601 30000000000 0.01727234 0.00261900 0.00570300
333 1 0.000601 30000000000 0.01690934 0.00435400 0.00243500
334 1 0.000601 30000000000 0.01704434 0.00297900 0.00213800
335 1 0.000600 30000000000 0.01349834 0.00231900 0.00172600
336 1 0.000600 30000000000 0.01536934 0.00621400 0.00483500
337 1 0.000600 30000000000 0.01603234 0.00340200 0.00510600
338 1 0.000600 30000000000 0.01444134 0.00355600 0.00487400
339 1 0.000600 30000000000 0.01486034 0.00642500 0.00327600
340 1 0.000600 30000000000 0.01609934 0.00361600 0.00023800
341 1 0.000599 30000000000 0.01770334 0.00121800 0.00512600
342 1 0.000599 30000000000 0.01403734 0.00088100 0.00253700
343 1 0.000598 30000000000 0.01715934 0.00055500 0.00043100
344 1 0.000596 30000000000 0.01875334 0.00351200 0.00522700
345 1 0.000596 30000000000 0.01892734 0.00476300 0.00407800
346 1 0.000595 30000000000 0.01865534 0.00217200 0.00423800
347 1 0.000595 30000000000 0.01567634 0.00103600 0.00265700
348 1 0.000594 30000000000 0.01927134 0.00029800 0.00007300
349 1 0.000593 30000000000 0.01675534 0.00376100 0.00380400
350 1 0.000591 30000000000 0.01735234 0.00153500 0.00193300
351 1 0.000591 30000000000 0.01681334 0.00613500 0.00603400
352 1 0.000590 30000000000 0.01873634 0.00119400 0.00079800
353 1 0.000590 30000000000 0.01872234 0.00222900 0.00034700
354 1 0.000589 30000000000 0.01662734 0.00081000 0.00049900
355 1 0.000588 30000000000 0.01442734 0.00474300 0.00377000
356 1 0.000588 30000000000 0.01667834 0.00252400 0.00225000
357 1 0.000586 30000000000 0.01561434 0.00455500 0.00251600
358 1 0.000586 30000000000 0.01357234 0.00441400 0.00458000
359 1 0.000584 30000000000 0.01671234 0.00473900 0.00615900
360 1 0.000584 30000000000 0.01548634 0.00170700 0.00384200
361 1 0.000582 30000000000 0.01556634 0.00186900 0.00038800
362 1 0.000582 30000000000 0.01341934 0.00605700 0.00284600
363 1 0.000581 30000000000 0.01519134 0.00080700 0.00134500
364 1 0.000581 30000000000 0.01427934 0.00215800 0.00381000
365 1 0.000579 30000000000 0.01625734 0.00212100 0.00224900
366 1 0.000577 30000000000 0.01652034 0.00351000 0.00541700
367 1 0.000577 30000000000 0.01782034 0.00032200 0.00116500
368 1 0.000576 30000000000 0.01370034 0.00222900 0.00376200
369 1 0.000576 30000000000 0.01483934 0.00530700 0.00558100
370 1 0.000575 30000000000 0.01600434 0.00163200 0.00207700
371 1 0.000575 30000000000 0.01595934 0.00414600 0.00229200
372 1 0.000574 30000000000 0.01343434 0.00002700 0.00367900
373 1 0.000573 30000000000 0.01470534 0.00605600 0.00113800
374 1 0.000572 30000000000 0.01843534 0.00271500 0.00291700
375 1 0.000571 30000000000 0.01483434 0.00231800 0.00425100
376 1 0.000571 30000000000 0.01798734 0.00257000 0.00148100
377 1 0.000569 30000000000 0.01432634 0.00629500 0.00149200
378 1 0.000569 30000000000 0.01811134 0.00339700 0.00380700
379 1 0.000565 30000000000 0.01551134 0.00375300 0.00309700
380 1 0.000564 30000000000 0.01619334 0.00417600 0.00487400
381 1 0.000563 30000000000 0.01746134 0.00059500 0.00538300
382 1 0.000562 30000000000 0.01643834 0.00070600 0.00103200
383 1 0.000562 30000000000 0.01315534 0.00148300 0.00065400
384 1 0.000561 30000000000 0.01482334 0.00165100 0.00108200
385 1 0.000561 30000000000 0.01484634 0.00436500 0.00387900
386 1 0.000560 30000000000 0.01335734 0.00402100 0.00422400
387 1 0.000560 30000000000 0.01739234 0.00012900 0.00148600
388 1 0.000559 30000000000 0.01441434 0.00557200 0.00033000
389 1 0.000557 30000000000 0.01374134 0.00179500 0.00178600
390 1 0.000556 30000000000 0.01330134 0.00043900 0.00404900
391 1 0.000556 30000000000 0.01499534 0.00535900 0.00613900
392 1 0.000556 30000000000 0.01818334 0.00348600 0.00530200
393 1 0.000556 30000000000 0.01591534 0.00135900 0.00405800
394 1 0.000555 30000000000 0.01361434 0.00067900 0.00522100
395 1 0.000555 30000000000 0.01898434 0.00209600 0.00470400
396 1 0.000551 30000000000 0.01513534 0.00496700 0.00384400
397 1 0.000551 30000000000 0.01641234 0.00626000 0.00444500
398 1 0.000551 30000000000 0.01909534 0.00393100 0.00445900
399 1 0.000550 30000000000 0.01907534 0.00629900 0.00246900
400 1 0.000549 30000000000 0.01345834 0.00323700 0.00601400
401 1 0.000547 30000000000 0.01688834 0.00291800 0.00122100
402 1 0.000546 30000000000 0.01472934 0.00390500 0.00281600
403 1 0.000546 30000000000 0.01918334 0.00051300 0.00059400
404 1 0.000546 30000000000 0.01890634 0.00624200 0.00305500
405 1 0.000545 30000000000 0.01373434 0.00168600 0.00640300
406 1 0.000545 30000000000 0.01429634 0.00559900 0.00486600
407 1 0.000544 30000000000 0.01355734 0.00213600 0.00021700
408 1 0.000543 30000000000 0.01412834 0.00025900 0.00114800
409 1 0.000543 30000000000 0.01692934 0.00001400 0.00445600
410 1 0.000542 30000000000 0.01337634 0.00265200 0.00307900
411 1 0.000542 30000000000 0.01433134 0.00545900 0.00539400
412 1 0.000541 30000000000 0.01543934 0.00126000 0.00112600
413 1 0.000541 30000000000 0.01369334 0.00520600 0.00025000
414 1 0.000539 30000000000 0.01563634 0.00278400 0.00135300
415 1 0.000539 30000000000 0.01719134 0.00520100 0.00045700
416 1 0.000539 30000000000 0.01336034 0.00397200 0.00271400
417 1 0.000539 30000000000 0.01543334 0.00184800 0.00093300
418 1 0.000538 30000000000 0.01775334 0.00519800 0.00052700
419 1 0.000538 30000000000 0.01731234 0.00120200 0.00139800
420 1 0.000537 30000000000 0.01399134 0.00031900 0.00539600
421 1 0.000537 30000000000 0.01660734 0.00449300 0.00459000
422 1 0.000537 30000000000 0.01504534 0.00180900 0.00418600
423 1 0.000536 30000000000 0.01840734 0.00259400 0.00063700
424 1 0.000536 30000000000 0.01423634 0.00587900 0.00184400
425 1 0.000535 30000000000 0.01490934 0.00324400 0.00428000
426 1 0.000534 30000000000 0.01781134 0.00177500 0.00570300
427 1 0.000534 30000000000 0.01356034 0.00554000 0.00269200
428 1 0.000534 30000000000 0.01729734 0.00410500 0.00276600
429 1 0.000534 30000000000 0.01772434 0.00086800 0.00118900
430 1 0.000533 30000000000 0.01789234 0.00618200 0.00086900
431 1 0.000533 30000000000 0.01901434 0.00033000 0.00174900
432 1 0.000532 30000000000 0.01795934 0.00280500 0.00329500
433 1 0.000532 30000000000 0.01748834 0.00613000 0.00459600
434 1 0.000531 30000000000 0.01711834 0.00004900 0.00395400
435 1 0.000531 30000000000 0.01878434 0.00450500 0.00069000
436 1 0.000531 30000000000 0.01784234 0.00144100 0.00639400
437 1 0.000530 30000000000 0.01496134 0.00563900 0.00205800
438 1 0.000529 30000000000 0.01516834 0.00630400 0.00097500
439 1 0.000529 30000000000 0.01870234 0.00117800 0.00546100
440 1 0.000529 30000000000 0.01599334 0.00559200 0.00198700
441 1 0.000528 30000000000 0.01855434 0.00520200 0.00441400
442 1 0.000528 30000000000 0.01879434 0.00259000 0.00458600
443 1 0.000527 30000000000 0.01391334 0.00106400 0.00379000
444 1 0.000526 30000000000 0.01667634 0.00297300 0.00171100
445 1 0.000526 30000000000 0.01672434 0.00493200 0.00512600
446 1 0.000526 30000000000 0.01489034 0.00240300 0.00529000
447 1 0.000526 30000000000 0.01764134 0.00164100 0.00469800
448 1 0.000525 30000000000 0.01873734 0.00023100 0.00569200
449 1 0.000525 30000000000 0.01679134 0.00581500 0.00093100
450 1 0.000523 30000000000 0.01435934 0.00235100 0.00583200
451 1 0.000523 30000000000 0.01682034 0.00269800 0.00602700
452 1 0.000523 30000000000 0.01566634 0.00435400 0.00490200
453 1 0.000523 30000000000 0.01675034 0.00579300 0.00559900
454 1 0.000522 30000000000 0.01678334 0.00171100 0.00037200
455 1 0.000521 30000000000 0.01774734 0.00461300 0.00554000
456 1 0.000520 30000000000 0.01299334 0.00132000 0.00187700
457 1 0.000520 30000000000 0.01328434 0.00623700 0.00113600
458 1 0.000519 30000000000 0.01705234 0.00065100 0.00573100
459 1 0.000517 30000000000 0.01617434 0.00495500 0.00628200
460 1 0.000516 30000000000 0.01638434 0.00104700 0.00469200
461 1 0.000516 30000000000 0.01717034 0.00481000 0.00488700
462 1 0.000515 30000000000 0.01739434 0.00424800 0.00564900
463 1 0.000515 30000000000 0.01720434 0.00243800 0.00459300
464 1 0.000515 30000000000 0.01735234 0.00387200 0.00608400
465 1 0.000514 30000000000 0.01291034 0.00356800 0.00078100
466 1 0.000514 30000000000 0.01633634 0.00361400 0.00105800
467 1 0.000514 30000000000 0.01402734 0.00515000 0.00508800
468 1 0.000514 30000000000 0.01747534 0.00359700 0.00265400
469 1 0.000513 30000000000 0.01716334 0.00295800 0.00469000
470 1 0.000513 30000000000 0.01839534 0.00237400 0.00636300
471 1 0.000513 30000000000 0.01665534 0.00324500 0.00002200
472 1 0.000513 30000000000 0.01364434 0.00209300 0.00222800
473 1 0.000513 30000000000 0.01506734 0.00161000 0.00347400
474 1 0.000513 30000000000 0.01400234 0.00505500 0.00127600
475 1 0.000512 30000000000 0.01293134 0.00381800 0.00131600
476 1 0.000512 30000000000 0.01677334 0.00264200 0.00440200
477 1 0.000512 30000000000 0.01572534 0.00614000 0.00097800
478 1 0.000511 30000000000 0.01729734 0.00569500 0.00199500
479 1 0.000510 30000000000 0.01513534 0.00310300 0.00249400
480 1 0.000510 30000000000 0.01445834 0.00207400 0.00460500
481 1 0.000509 30000000000 0.01489134 0.00399000 0.00425800
482 1 0.000508 30000000000 0.01424034 0.00356500 0.00539100
483 1 0.000508 30000000000 0.01853734 0.00593500 0.00281600
484 1 0.000508 30000000000 0.01346734 0.00441800 0.00388500
485 1 0.000507 30000000000 0.01572334 0.00421500 0.00293000
486 1 0.000506 30000000000 0.01395634 0.00475100 0.00058200
487 1 0.000506 30000000000 0.01651334 0.00009800 0.00627800
488 1 0.000506 30000000000 0.01907334 0.00005900 0.00605500
489 1 0.000504 30000000000 0.01336934 0.00234100 0.00265800
490 1 0.000504 30000000000 0.01783834 0.00148000 0.00413800
491 1 0.000502 30000000000 0.01540134 0.00290400 0.00044700
492 1 0.000502 30000000000 0.01413134 0.00210300 0.00197200
493 1 0.000502 30000000000 0.01407334 0.00631900 0.00606400
494 1 0.000501 30000000000 0.01330434 0.00154700 0.00587900
495 1 0.000501 30000000000 0.01470334 0.00269500 0.00567100
496 1 0.000501 30000000000 0.01310834 0.00220600 0.00312200
497 1 0.000501 30000000000 0.01396534 0.00245000 0.00146300
