/*--------------------------------*- C++ -*----------------------------------*\
| =========                 |                                                 |
| \\      /  F ield         | OpenFOAM: The Open Source CFD Toolbox           |
|  \\    /   O peration     | Version:  3.0.1                                 |
|   \\  /    A nd           | Web:      www.OpenFOAM.org                      |
|    \\/     M anipulation  |                                                 |
\*---------------------------------------------------------------------------*/
FoamFile
{
    version     2.0;
    format      ascii;
    class       volScalarField;
    location    "0.1";
    object      p;
}
// * * * * * * * * * * * * * * * * * * * * * * * * * * * * * * * * * * * * * //

dimensions      [0 2 -2 0 0 0 0];

internalField   nonuniform List<scalar> 
125
(
-0.060442079
-0.057198155
-0.052405379
-0.047784342
-0.044966667
-0.057375744
-0.055332954
-0.052526093
-0.049806001
-0.047966497
-0.055572352
-0.054284312
-0.052591043
-0.050936171
-0.049736858
-0.054488572
-0.05366983
-0.052622796
-0.051592326
-0.050811417
-0.053827554
-0.053298453
-0.05263684
-0.051984723
-0.051476561
-0.060199002
-0.057360112
-0.052885505
-0.048325671
-0.045353188
-0.057250391
-0.055401458
-0.052755792
-0.050094672
-0.04821811
-0.055509247
-0.054314678
-0.052705978
-0.05109588
-0.049895946
-0.054457681
-0.053686083
-0.052684633
-0.051682461
-0.050905457
-0.053813939
-0.05331192
-0.052674192
-0.052036221
-0.051531782
-0.05986086
-0.057391476
-0.053234708
-0.048804317
-0.045788361
-0.057056429
-0.055399399
-0.052936783
-0.050379493
-0.048514293
-0.055402283
-0.054312433
-0.05280741
-0.051263706
-0.050081952
-0.054401174
-0.053687249
-0.052743475
-0.051781237
-0.051020712
-0.053784154
-0.053314128
-0.052709373
-0.052097018
-0.051606824
-0.059368462
-0.057214523
-0.05341538
-0.049284747
-0.04641183
-0.056789124
-0.055313694
-0.053052806
-0.050660299
-0.048877197
-0.055255985
-0.054272375
-0.052880725
-0.05142784
-0.050295518
-0.054321089
-0.053669269
-0.052789735
-0.051880052
-0.051152148
-0.053741521
-0.053306094
-0.052740068
-0.052161411
-0.051692461
-0.058783255
-0.056894463
-0.053493456
-0.049784064
-0.047194958
-0.056473595
-0.055159655
-0.053115646
-0.050937648
-0.049295197
-0.05508107
-0.054198141
-0.052924203
-0.051582991
-0.050526082
-0.054222918
-0.0536324
-0.052818472
-0.051970834
-0.051287362
-0.05368936
-0.053286692
-0.05276125
-0.052221028
-0.051778229
)
;

boundaryField
{
    movingWall
    {
        type            zeroGradient;
    }
    CPLReceiveMD
    {
        type            zeroGradient;
    }
    streamwiseIn
    {
        type            cyclic;
    }
    streamwiseOut
    {
        type            cyclic;
    }
    front
    {
        type            cyclic;
    }
    back
    {
        type            cyclic;
    }
    procBoundary5to2
    {
        type            processor;
        value           nonuniform List<scalar> 
25
(
-0.06577691
-0.060676592
-0.052168822
-0.043994394
-0.039775303
-0.065310807
-0.061087135
-0.053243489
-0.045045099
-0.040323275
-0.06474277
-0.06128311
-0.053985201
-0.045803235
-0.040837329
-0.063819416
-0.060896599
-0.054218019
-0.046606333
-0.041925635
-0.062758604
-0.060251905
-0.054250657
-0.047495912
-0.043414505
)
;
    }
    procBoundary5to3throughstreamwiseOut
    {
        type            processorCyclic;
        value           nonuniform List<scalar> 
25
(
-0.044342174
-0.047327571
-0.049224651
-0.050432669
-0.051204064
-0.044513599
-0.047482755
-0.049338999
-0.050507755
-0.051254093
-0.044842502
-0.047729773
-0.049504155
-0.050615705
-0.051329489
-0.045436473
-0.048088225
-0.049721394
-0.050752243
-0.051419734
-0.04623232
-0.048525962
-0.049969844
-0.050900603
-0.051512532
)
;
    }
    procBoundary5to4
    {
        type            processor;
        value           nonuniform List<scalar> 
25
(
-0.061497496
-0.058221303
-0.056185977
-0.054917215
-0.054120358
-0.060992085
-0.0579639
-0.056055148
-0.05484905
-0.054084556
-0.06040698
-0.057642482
-0.055879437
-0.054752201
-0.054029103
-0.05973307
-0.057270916
-0.055672372
-0.054635681
-0.053962571
-0.059042524
-0.05688543
-0.055456269
-0.054515617
-0.053896466
)
;
    }
    procBoundary5to8
    {
        type            processor;
        value           nonuniform List<scalar> 
25
(
-0.053422436
-0.053076282
-0.052647557
-0.052222981
-0.051884167
-0.053414463
-0.053085476
-0.052671003
-0.052255705
-0.051922185
-0.053395698
-0.053086817
-0.052693369
-0.052296276
-0.051975101
-0.053370968
-0.053082971
-0.052714606
-0.052340084
-0.052033101
-0.053345108
-0.053075657
-0.052733178
-0.052382064
-0.052088281
)
;
    }
    procBoundary5to14
    {
        type            processor;
        value           nonuniform List<scalar> 
25
(
-0.058162094
-0.056484844
-0.053528983
-0.05030454
-0.048001574
-0.056157093
-0.054964843
-0.053138052
-0.051185466
-0.049694104
-0.054922919
-0.054103646
-0.052938646
-0.051709049
-0.050733609
-0.05414392
-0.053588244
-0.052830611
-0.052039986
-0.051400286
-0.053642495
-0.053264836
-0.052771519
-0.05226256
-0.051843456
)
;
    }
    procBoundary5to23throughfront
    {
        type            processorCyclic;
        value           nonuniform List<scalar> 
25
(
-0.060615556
-0.057425932
-0.055583177
-0.054490309
-0.053824678
-0.056981374
-0.055216914
-0.054223316
-0.053638286
-0.053280704
-0.051875382
-0.052282598
-0.052474948
-0.052564652
-0.052606162
-0.047203655
-0.049535896
-0.050806398
-0.051526219
-0.051949015
-0.044587777
-0.047778217
-0.049643756
-0.050762934
-0.051447279
)
;
    }
}


// ************************************************************************* //
