/*--------------------------------*- C++ -*----------------------------------*\
| =========                 |                                                 |
| \\      /  F ield         | OpenFOAM: The Open Source CFD Toolbox           |
|  \\    /   O peration     | Version:  3.0.1                                 |
|   \\  /    A nd           | Web:      www.OpenFOAM.org                      |
|    \\/     M anipulation  |                                                 |
\*---------------------------------------------------------------------------*/
FoamFile
{
    version     2.0;
    format      ascii;
    class       surfaceScalarField;
    location    "0.1";
    object      phi;
}
// * * * * * * * * * * * * * * * * * * * * * * * * * * * * * * * * * * * * * //

dimensions      [0 3 -1 0 0 0 0];

internalField   nonuniform List<scalar> 
300
(
-0.0064849558
-0.0061334173
-0.0004858388
-0.0095809777
-0.0037308785
0.00032415429
-0.0092370592
0.00024156221
0.00096042259
-0.0056315291
0.0040438215
0.0010827184
0.0059999392
0.00077290013
-0.0040827899
-0.003606345
-0.00025032186
-0.0056098948
-0.0020969359
0.00013728912
-0.0054361165
0.00013014315
0.00045956173
-0.0036756404
0.002260282
0.00057733998
0.003540076
0.00050298363
-0.0025736889
-0.0021666854
-0.00012590959
-0.0033834842
-0.0012284304
6.0949387e-05
-0.0033065941
6.3633349e-05
0.00022997626
-0.0023959983
0.0013119111
0.00031937403
0.0021480846
0.00031795887
-0.0016356145
-0.0013211537
-6.1592291e-05
-0.0020917578
-0.00074226618
3.2637014e-05
-0.0020586135
2.8106841e-05
0.00012372092
-0.0015598913
0.00078428855
0.00018021901
0.0013292427
0.00018792901
-0.0010568124
-2.7130531e-05
-0.0013215476
2.698863e-05
-0.001302572
7.4707225e-05
-0.0010149672
0.00010294563
0.00011034143
-0.0056751375
-0.0058978406
-0.00067602771
-0.0089448991
-0.0039178472
6.3050204e-05
-0.0091148745
-0.00025949224
0.00069873619
-0.0059413469
0.0035383324
0.0009574883
0.0057300494
0.00087029197
-0.0036952736
-0.0034819103
-0.0003875555
-0.0052877377
-0.0021733256
-3.7743934e-06
-0.0053184177
-9.9520079e-05
0.00036222406
-0.0037500193
0.0020022716
0.00056969333
0.0033550765
0.00059215611
-0.0023868826
-0.0021023824
-0.00021363052
-0.0032145211
-0.0012567723
-4.2627486e-06
-0.0032172434
-4.2657674e-05
0.00020297467
-0.0023974311
0.0011727386
0.00033560559
0.0020180772
0.00037178572
-0.0015414132
-0.00128671
-0.00011282209
-0.0020007064
-0.00074793182
2.4554173e-06
-0.0020021397
-2.0921798e-05
0.00011771175
-0.0015521915
0.00070701178
0.00019747134
0.0012516722
0.00023031594
-0.0010027065
-5.9457911e-05
-0.0012738437
4.4705694e-06
-0.0012743445
7.0347838e-05
-0.0010075762
0.00012150461
0.0001499216
-0.0049362207
-0.0056093582
-0.00098470892
-0.0083093973
-0.0039847416
-0.00035360822
-0.0088562009
-0.00059607486
0.00036174004
-0.0060285259
0.0031506044
0.00096114453
0.0054520898
0.0012469825
-0.0033115586
-0.0033079646
-0.00053446613
-0.0049218192
-0.0021738285
-0.00017116439
-0.005110995
-0.00025880018
0.00023230225
-0.0037275387
0.0017681852
0.00056176469
0.0031347348
0.00072578945
-0.0021775436
-0.0020015667
-0.00029245383
-0.0030073209
-0.0012500659
-7.9968961e-05
-0.0030846343
-0.00012794341
0.00014673559
-0.0023612419
0.0010345872
0.00032828064
0.001876609
0.00042701603
-0.0014261482
-0.0012333448
-0.00016005653
-0.0018854671
-0.00074592435
-3.588717e-05
-0.0019223905
-6.8298903e-05
9.2535044e-05
-0.0015193428
0.00063103388
0.00019756345
0.0011712757
0.00026271
-0.00093878336
-8.5188052e-05
-0.0012079738
-1.6037068e-05
-0.0012231924
6.1358123e-05
-0.00097915749
0.00012868534
0.00017110636
-0.0043051914
-0.0051589901
-0.0011706125
-0.0075941178
-0.0038021591
-0.00064005788
-0.0082568063
-0.0007253887
0.0001563737
-0.0057426065
0.0027512598
0.00099886475
0.0049308325
0.0015663522
-0.0029482908
-0.0030658902
-0.00063113201
-0.0045183881
-0.0020825889
-0.0003080033
-0.0047815431
-0.00034435006
0.00012582786
-0.0035634868
0.0015346909
0.00055481824
0.0028359225
0.00083603471
-0.0019650713
-0.0018691371
-0.00034981225
-0.0027806313
-0.0012059747
-0.00014841991
-0.0029030936
-0.0001821546
8.7009943e-05
-0.002262491
0.00090384316
0.00031031274
0.0017122637
0.00046106087
-0.0013019831
-0.0011584596
-0.00019628771
-0.0017570516
-0.0007260727
-7.3714267e-05
-0.0018173643
-9.948677e-05
5.7469474e-05
-0.0014541878
0.00056213648
0.00018150466
0.0010796484
0.00027029761
-0.00086963383
-0.00010427111
-0.0011305819
-3.87888e-05
-0.0011558667
4.2327345e-05
-0.00093673234
0.00011913716
0.00017138496
-0.0037746005
-0.0046194507
-0.0067977338
-0.0034700181
-0.0074143854
-0.00075583246
-0.0051750671
0.0023072311
0.0042003769
-0.0026251377
-0.0027845149
-0.0040845368
-0.0019229604
-0.0043525318
-0.00038315647
-0.00328224
0.0012901257
0.0024608719
-0.0017636629
-0.001715559
-0.0025451874
-0.0011312446
-0.0026797763
-0.00021170955
-0.0021117231
0.00077497982
0.0015214188
-0.0011794003
-0.0010664113
-0.0016258609
-0.00069113641
-0.0016933219
-0.0001146406
-0.0013653832
0.00049973676
0.00098069009
-0.00080414698
-0.0010494631
-0.001079054
-0.00088447819
)
;

boundaryField
{
    movingWall
    {
        type            calculated;
        value           nonuniform 0();
    }
    CPLReceiveMD
    {
        type            calculated;
        value           nonuniform 0();
    }
    streamwiseIn
    {
        type            cyclic;
        value           nonuniform 0();
    }
    streamwiseOut
    {
        type            cyclic;
        value           nonuniform 0();
    }
    front
    {
        type            cyclic;
        value           nonuniform 0();
    }
    back
    {
        type            cyclic;
        value           nonuniform 0();
    }
    procBoundary5to2
    {
        type            processor;
        value           nonuniform List<scalar> 
25
(
0.010672405
0.006959224
-0.00047270299
-0.0075812866
-0.010384354
0.01022594
0.0074563538
0.00071673242
-0.0065622018
-0.010061276
0.0097657749
0.0077855826
0.0015019486
-0.0060033514
-0.009903877
0.0089034642
0.0073659879
0.001605835
-0.0053580719
-0.0089740865
0.0079520128
0.006716501
0.0015145502
-0.004577856
-0.0075623598
)
;
    }
    procBoundary5to3throughstreamwiseOut
    {
        type            processorCyclic;
        value           nonuniform List<scalar> 
25
(
-0.0012470914
-0.0012759928
-0.0010229427
-0.00075640745
-0.00054420281
-0.001677459
-0.0014690136
-0.0011125207
-0.00079437199
-0.00055462184
-0.0018902409
-0.0015675224
-0.0011543297
-0.00080904544
-0.00055395468
-0.0019493521
-0.0015765526
-0.0011470722
-0.00079889516
-0.00054476795
-0.001923768
-0.0015371042
-0.0011113398
-0.0007726338
-0.00053072593
)
;
    }
    procBoundary5to4
    {
        type            processor;
        value           nonuniform List<scalar> 
25
(
0.0021096952
0.0016897558
0.0012259524
0.00085620887
0.00058478971
0.0015851682
0.0014257518
0.0010905739
0.0007817094
0.00054045089
0.0010912434
0.0011708434
0.00095310209
0.00070106667
0.0004891597
0.0007280373
0.00096218401
0.00083151768
0.00062819996
0.00044139371
0.00051698604
0.00082204947
0.00074902494
0.00058436417
0.00041350195
)
;
    }
    procBoundary5to8
    {
        type            processor;
        value           nonuniform List<scalar> 
25
(
-0.0008094986
-0.0004439708
2.1394816e-05
0.00047605414
0.00081436414
-0.00079827657
-0.00045256398
-6.4448619e-06
0.00043850521
0.00077998381
-0.00077627997
-0.00045433352
-3.2098634e-05
0.00039805053
0.00073575739
-0.00074048764
-0.0004459789
-5.1035309e-05
0.00035686807
0.00068049345
-0.00068788306
-0.00042181277
-5.6278288e-05
0.00032157131
0.00061931159
)
;
    }
    procBoundary5to14
    {
        type            processor;
        value           nonuniform List<scalar> 
25
(
-0.0012426268
-0.00081940441
7.0887201e-05
0.0010407614
0.0016131667
-0.00063316431
-0.00038971133
4.4719524e-05
0.00049553339
0.00079770521
-0.00031638076
-0.00018903053
2.883134e-05
0.00025203514
0.00041493804
-0.00015801874
-8.8329124e-05
2.4232451e-05
0.00013822518
0.00022573062
-9.3700534e-05
-4.3713139e-05
2.0498353e-05
8.2988371e-05
0.00013034491
)
;
    }
    procBoundary5to23throughfront
    {
        type            processorCyclic;
        value           nonuniform List<scalar> 
25
(
0.00034686995
0.0001002779
2.1550506e-05
3.4010702e-06
-5.7840923e-06
-0.00043351542
-0.00023213904
-0.00012209445
-6.3169229e-05
-3.55411e-05
-0.0010599475
-0.00048705541
-0.00023228806
-0.00011636192
-6.1391534e-05
-0.0011614195
-0.00054028567
-0.00025963269
-0.00013226763
-7.1436363e-05
-0.00075793087
-0.00037666944
-0.00018629014
-9.7016024e-05
-5.8574117e-05
)
;
    }
}


// ************************************************************************* //
