/*--------------------------------*- C++ -*----------------------------------*\
| =========                 |                                                 |
| \\      /  F ield         | OpenFOAM: The Open Source CFD Toolbox           |
|  \\    /   O peration     | Version:  3.0.1                                 |
|   \\  /    A nd           | Web:      www.OpenFOAM.org                      |
|    \\/     M anipulation  |                                                 |
\*---------------------------------------------------------------------------*/
FoamFile
{
    version     2.0;
    format      ascii;
    class       volScalarField;
    location    "0.1";
    object      p;
}
// * * * * * * * * * * * * * * * * * * * * * * * * * * * * * * * * * * * * * //

dimensions      [0 2 -2 0 0 0 0];

internalField   nonuniform List<scalar> 
125
(
-0.053422436
-0.053076282
-0.052647557
-0.052222981
-0.051884167
-0.053180715
-0.052945365
-0.052659129
-0.052373242
-0.052136127
-0.053031887
-0.052867013
-0.052668929
-0.052468742
-0.052297711
-0.052940584
-0.052821616
-0.052677477
-0.052529684
-0.052402777
-0.052895822
-0.052801104
-0.052682829
-0.052560344
-0.052456416
-0.053414463
-0.053085476
-0.052671003
-0.052255705
-0.051922185
-0.053172236
-0.052948459
-0.052672257
-0.052394821
-0.052166364
-0.053022912
-0.05286678
-0.052676387
-0.052483067
-0.052319233
-0.052934721
-0.052820982
-0.052681592
-0.052537797
-0.052413646
-0.05289356
-0.052800612
-0.052685051
-0.052564735
-0.052460526
-0.053395698
-0.053086817
-0.052693369
-0.052296276
-0.051975101
-0.053159178
-0.052949233
-0.052687633
-0.052423222
-0.052204194
-0.053013254
-0.052867349
-0.05268754
-0.052503517
-0.052346486
-0.052927906
-0.052821601
-0.052690161
-0.052553187
-0.052433539
-0.052888065
-0.052801261
-0.052692593
-0.052577835
-0.052476897
-0.053370968
-0.053082971
-0.052714606
-0.052340084
-0.052033101
-0.053144031
-0.052948669
-0.052703984
-0.052454432
-0.052244862
-0.053002914
-0.052868166
-0.052700892
-0.052527847
-0.05237824
-0.052919362
-0.052822981
-0.052702581
-0.052574879
-0.052461361
-0.052879874
-0.052803249
-0.05270514
-0.052598591
-0.052502704
-0.053345108
-0.053075657
-0.052733178
-0.052382064
-0.052088281
-0.053127974
-0.05294622
-0.052718811
-0.052484407
-0.052283731
-0.052991305
-0.052868308
-0.052714748
-0.052553497
-0.052411251
-0.052908687
-0.052825281
-0.052718033
-0.052600563
-0.052493249
-0.052869513
-0.05280795
-0.052722387
-0.052624426
-0.052533025
)
;

boundaryField
{
    movingWall
    {
        type            zeroGradient;
    }
    CPLReceiveMD
    {
        type            zeroGradient;
    }
    streamwiseIn
    {
        type            cyclic;
    }
    streamwiseOut
    {
        type            cyclic;
    }
    front
    {
        type            cyclic;
    }
    back
    {
        type            cyclic;
    }
    procBoundary8to5
    {
        type            processor;
        value           nonuniform List<scalar> 
25
(
-0.053827554
-0.053298453
-0.05263684
-0.051984723
-0.051476561
-0.053813939
-0.05331192
-0.052674192
-0.052036221
-0.051531782
-0.053784154
-0.053314128
-0.052709373
-0.052097018
-0.051606824
-0.053741521
-0.053306094
-0.052740068
-0.052161411
-0.051692461
-0.05368936
-0.053286692
-0.05276125
-0.052221028
-0.051778229
)
;
    }
    procBoundary8to6throughstreamwiseOut
    {
        type            processorCyclic;
        value           nonuniform List<scalar> 
25
(
-0.051696819
-0.052002035
-0.052196823
-0.052322301
-0.052386331
-0.051730472
-0.052031924
-0.052220658
-0.052336444
-0.052393578
-0.051783002
-0.052070799
-0.052249759
-0.052358193
-0.052411637
-0.051845062
-0.052113897
-0.052283071
-0.052386943
-0.052438221
-0.051907908
-0.052156132
-0.052317116
-0.052418943
-0.052469084
)
;
    }
    procBoundary8to7
    {
        type            processor;
        value           nonuniform List<scalar> 
25
(
-0.053627959
-0.053323485
-0.053132709
-0.053014433
-0.052956163
-0.05360616
-0.053304641
-0.053117035
-0.053004979
-0.05295195
-0.053574487
-0.053282464
-0.053100597
-0.052993005
-0.052942271
-0.053537225
-0.053259466
-0.053083595
-0.052978068
-0.052927826
-0.053498968
-0.053238062
-0.053066966
-0.052960268
-0.05290857
)
;
    }
    procBoundary8to17
    {
        type            processor;
        value           nonuniform List<scalar> 
25
(
-0.053323487
-0.053064873
-0.052740215
-0.052408726
-0.052131711
-0.053118383
-0.052943266
-0.052726753
-0.052504254
-0.052314076
-0.052983929
-0.052867748
-0.052722499
-0.052570113
-0.052435935
-0.052899996
-0.052824473
-0.052724907
-0.052615414
-0.05251566
-0.05285896
-0.052805668
-0.052728273
-0.052638382
-0.052554657
)
;
    }
    procBoundary8to26throughfront
    {
        type            processorCyclic;
        value           nonuniform List<scalar> 
25
(
-0.053424809
-0.053184738
-0.053036506
-0.052944236
-0.052898354
-0.053066876
-0.052942087
-0.052867175
-0.052823012
-0.052802347
-0.05263198
-0.05265156
-0.052665882
-0.052676581
-0.052682303
-0.052206582
-0.052364023
-0.052463659
-0.052527116
-0.05255854
-0.051871078
-0.052128137
-0.052292577
-0.052399668
-0.052453572
)
;
    }
}


// ************************************************************************* //
