/*--------------------------------*- C++ -*----------------------------------*\
| =========                 |                                                 |
| \\      /  F ield         | OpenFOAM: The Open Source CFD Toolbox           |
|  \\    /   O peration     | Version:  3.0.1                                 |
|   \\  /    A nd           | Web:      www.OpenFOAM.org                      |
|    \\/     M anipulation  |                                                 |
\*---------------------------------------------------------------------------*/
FoamFile
{
    version     2.0;
    format      ascii;
    class       surfaceScalarField;
    location    "0.1";
    object      phi;
}
// * * * * * * * * * * * * * * * * * * * * * * * * * * * * * * * * * * * * * //

dimensions      [0 3 -1 0 0 0 0];

internalField   nonuniform List<scalar> 
300
(
-0.00069131765
-0.00048290075
-1.5893957e-05
-0.00085625388
-0.00026156663
1.8406881e-05
-0.00084797515
2.3085948e-05
4.6875515e-05
-0.00067666864
0.00030014721
6.5397737e-05
0.00050328759
7.595158e-05
-0.0004700018
-0.00029726894
-1.6917841e-05
-0.00057163971
-0.0001565175
6.1997281e-06
-0.0005709483
1.9553023e-05
2.6241215e-05
-0.00047353918
0.00019072847
4.3114992e-05
0.00032271463
6.0397399e-05
-0.00032925434
-0.00018235245
-1.7916544e-05
-0.00039558213
-9.0677582e-05
-4.5724018e-07
-0.00039978525
1.7060522e-05
1.4904152e-05
-0.00034155673
0.00012170348
2.8617366e-05
0.00020982303
4.2985543e-05
-0.00023757942
-8.9384823e-05
-1.1704913e-05
-0.00028784754
-4.0963622e-05
-1.2617802e-06
-0.00029514613
1.0682591e-05
8.2217157e-06
-0.0002534382
6.1219807e-05
1.6205312e-05
0.0001071066
2.1708626e-05
-0.00018910488
-4.5155979e-06
-0.00023613697
-9.8089804e-07
-0.00024454269
4.437804e-06
-0.00020749418
8.767444e-06
8.2066631e-06
-0.00065702269
-0.00048393356
-3.7459366e-05
-0.0008277914
-0.00027378084
2.7066075e-06
-0.00082945738
2.4467595e-06
4.4701858e-05
-0.00066611651
0.00027786302
8.1056357e-05
0.00048773631
0.00010569668
-0.00044688645
-0.00029827216
-2.6070505e-05
-0.00055160035
-0.00016317822
1.5582817e-06
-0.000554076
8.2132385e-06
3.0720209e-05
-0.00045625728
0.00017622976
5.6731683e-05
0.00030530368
7.5555726e-05
-0.00031179586
-0.0001761427
-1.9285824e-05
-0.00038022153
-9.1483934e-05
1.1414725e-06
-0.00038607262
1.0376683e-05
2.2279492e-05
-0.00032718874
0.00010929077
4.0844701e-05
0.00018854622
5.4428439e-05
-0.00022713658
-8.2198119e-05
-1.3609018e-05
-0.00027836434
-4.0683521e-05
1.2380055e-06
-0.00028716276
6.8999384e-06
1.7116372e-05
-0.00024793495
5.3784987e-05
3.0736639e-05
9.3608514e-05
3.9728445e-05
-0.00018557028
-1.096974e-05
-0.00023071837
1.2982001e-06
-0.00024021313
1.5059208e-05
-0.00020805497
2.6156224e-05
3.2685753e-05
-0.0006168587
-0.00047254629
-4.940375e-05
-0.00078579898
-0.00027493308
-7.682075e-06
-0.0007931046
-1.154012e-05
4.2428774e-05
-0.00064147538
0.00025353355
8.7514003e-05
0.00045759284
0.00011585474
-0.00041925858
-0.00029148868
-3.0254467e-05
-0.00052243949
-0.00016359692
-1.1294905e-06
-0.00052806518
-2.2971502e-07
3.2659228e-05
-0.00043743299
0.00016034088
6.2334101e-05
0.00028417556
8.1222661e-05
-0.00029136891
-0.00017046651
-2.0649295e-05
-0.0003590839
-9.1388215e-05
1.6307455e-06
-0.00036750766
5.2127203e-06
2.6663866e-05
-0.00031360492
9.9182079e-05
4.8588828e-05
0.00017384604
6.3414191e-05
-0.00021228969
-7.9562079e-05
-1.7062289e-05
-0.00026248611
-4.0623191e-05
2.7561244e-06
-0.00027354258
4.8466364e-06
2.4801649e-05
-0.00023894312
4.9211589e-05
4.3318957e-05
8.6574876e-05
5.5560259e-05
-0.00017330238
-1.6354294e-05
-0.00021695742
3.9682633e-06
-0.00022911616
2.5049567e-05
-0.00020152544
4.1438775e-05
5.1523112e-05
-0.00057513751
-0.00045339249
-5.1683864e-05
-0.00073568977
-0.00026838097
-1.4628018e-05
-0.00074802013
-2.1314497e-05
3.7091099e-05
-0.00061313302
0.00022834624
8.385672e-05
0.00042295321
0.00011022553
-0.00039013372
-0.00028188181
-3.2082863e-05
-0.00048865153
-0.00016083664
-4.9011062e-06
-0.00049839081
-6.2266324e-06
2.9605964e-05
-0.00041854375
0.00014659311
5.9866497e-05
0.00026636455
7.7628483e-05
-0.00026908891
-0.00016687895
-2.3189899e-05
-0.00033405107
-9.0262634e-05
2.7836261e-07
-0.0003455829
3.3502459e-06
2.7668874e-05
-0.00029877935
9.3911638e-05
5.1224013e-05
0.00016599157
6.5926823e-05
-0.00019247129
-7.8858108e-05
-2.1320927e-05
-0.00024044069
-3.941015e-05
4.5909849e-06
-0.00025502536
5.1007241e-06
3.0856202e-05
-0.00022670176
4.7341854e-05
5.1290588e-05
8.255097e-05
6.3682796e-05
-0.00015297983
-2.0686945e-05
-0.00019587616
9.3845341e-06
-0.00021272698
3.4433005e-05
-0.00019144108
5.1579448e-05
6.0536749e-05
-0.00053807997
-0.00043378061
-0.00068397029
-0.00025865016
-0.00070125371
-2.880275e-05
-0.00058676137
0.00020434739
0.00039034445
-0.00036295136
-0.00027298404
-0.00045414449
-0.00015565481
-0.00046813005
-8.1640425e-06
-0.00040078035
0.00013794817
0.00025465898
-0.00024562046
-0.00016500809
-0.00030666064
-8.5948605e-05
-0.00032202772
6.5380909e-06
-0.00028407604
9.3977862e-05
0.00016374675
-0.00016655933
-7.8228824e-05
-0.00021417553
-3.461446e-05
-0.00023459097
8.6858159e-06
-0.00021430937
4.7643448e-05
7.9420207e-05
-0.00012290835
-0.00017082772
-0.00019558054
-0.0001824837
)
;

boundaryField
{
    movingWall
    {
        type            calculated;
        value           uniform 0;
    }
    CPLReceiveMD
    {
        type            calculated;
        value           nonuniform 0();
    }
    streamwiseIn
    {
        type            cyclic;
        value           nonuniform 0();
    }
    streamwiseOut
    {
        type            cyclic;
        value           nonuniform 0();
    }
    front
    {
        type            cyclic;
        value           nonuniform 0();
    }
    back
    {
        type            cyclic;
        value           nonuniform 0();
    }
    procBoundary8to5
    {
        type            processor;
        value           nonuniform List<scalar> 
25
(
0.0008094986
0.0004439708
-2.1394816e-05
-0.00047605414
-0.00081436414
0.00079827657
0.00045256398
6.4448619e-06
-0.00043850521
-0.00077998381
0.00077627997
0.00045433352
3.2098634e-05
-0.00039805053
-0.00073575739
0.00074048764
0.0004459789
5.1035309e-05
-0.00035686807
-0.00068049345
0.00068788306
0.00042181277
5.6278288e-05
-0.00032157131
-0.00061931159
)
;
    }
    procBoundary8to6throughstreamwiseOut
    {
        type            processorCyclic;
        value           nonuniform List<scalar> 
25
(
-0.00037414228
-0.00026778735
-0.0002014771
-0.00016071245
-0.00013992661
-0.00038288159
-0.00026849051
-0.00019686156
-0.00015417539
-0.00013366391
-0.00038366977
-0.00026641037
-0.00019317345
-0.00015046997
-0.00013029457
-0.00037556945
-0.00026156136
-0.0001900613
-0.00014861601
-0.00012874308
-0.00036025556
-0.00025483495
-0.00018799663
-0.00014839421
-0.00012766053
)
;
    }
    procBoundary8to7
    {
        type            processor;
        value           nonuniform List<scalar> 
25
(
0.00041043157
0.00028510675
0.00020133904
0.00014747476
0.00012047096
0.00038280739
0.00026439966
0.00018795697
0.00014030178
0.00011657587
0.00035701752
0.00024618582
0.00017441689
0.00012999831
0.00010822107
0.00033198095
0.00023050357
0.00016111079
0.00011723149
9.5734981e-05
0.00030721208
0.00021982523
0.00015108678
0.000103003
7.7975993e-05
)
;
    }
    procBoundary8to17
    {
        type            processor;
        value           nonuniform List<scalar> 
25
(
-4.3217118e-05
-2.1562186e-05
1.4046867e-05
5.3260854e-05
8.675896e-05
-1.9167357e-05
-5.9087486e-06
1.5857662e-05
3.9638365e-05
6.0607709e-05
-1.4736589e-05
-1.1214693e-06
1.5476334e-05
3.3183227e-05
4.9296506e-05
-1.7359009e-05
-1.6165655e-06
1.3727468e-05
2.9657887e-05
4.4753727e-05
-2.1069668e-05
-4.5576943e-06
1.1750816e-05
2.7863814e-05
4.3187385e-05
)
;
    }
    procBoundary8to26throughfront
    {
        type            processorCyclic;
        value           nonuniform List<scalar> 
25
(
4.7170285e-06
8.0260559e-06
9.2213452e-06
7.2924277e-06
5.0553015e-06
-1.8829726e-05
-6.5674325e-06
3.142197e-07
2.7843946e-06
2.4799655e-06
-3.1169423e-05
-1.5141783e-05
-6.0962552e-06
-1.7939297e-06
-1.0511879e-06
-3.2809221e-05
-1.8437788e-05
-1.0162047e-05
-5.1343283e-06
-3.6036965e-06
-2.618312e-05
-1.5975644e-05
-1.026238e-05
-6.2116233e-06
-5.6803143e-06
)
;
    }
}


// ************************************************************************* //
