/*--------------------------------*- C++ -*----------------------------------*\
| =========                 |                                                 |
| \\      /  F ield         | OpenFOAM: The Open Source CFD Toolbox           |
|  \\    /   O peration     | Version:  3.0.1                                 |
|   \\  /    A nd           | Web:      www.OpenFOAM.org                      |
|    \\/     M anipulation  |                                                 |
\*---------------------------------------------------------------------------*/
FoamFile
{
    version     2.0;
    format      ascii;
    class       volVectorField;
    location    "0.1";
    object      U;
}
// * * * * * * * * * * * * * * * * * * * * * * * * * * * * * * * * * * * * * //

dimensions      [0 1 -1 0 0 0 0];

internalField   nonuniform List<vector> 
125
(
(-1.3771781e-06 -1.6153595e-06 -2.5752553e-08)
(-1.9344731e-06 -8.8185032e-07 4.6555175e-08)
(-2.1303247e-06 5.5580317e-08 9.7562355e-08)
(-1.9058234e-06 9.7015322e-07 1.2276123e-07)
(-1.3135034e-06 1.6469313e-06 1.276668e-07)
(-9.4387973e-07 -9.7513375e-07 -3.1174776e-08)
(-1.3020529e-06 -5.2256234e-07 1.5964118e-08)
(-1.4282486e-06 5.329418e-08 5.1732775e-08)
(-1.3056169e-06 6.135485e-07 7.6943354e-08)
(-9.2665552e-07 1.0324369e-06 9.5467173e-08)
(-6.6323911e-07 -5.9950177e-07 -3.3920408e-08)
(-9.0604516e-07 -3.0897779e-07 -9.6198505e-10)
(-9.9421386e-07 4.5767896e-08 2.6252643e-08)
(-9.2668069e-07 3.9052718e-07 4.8475823e-08)
(-6.787918e-07 6.6565309e-07 6.6560813e-08)
(-4.8131659e-07 -3.3967815e-07 -2.3745905e-08)
(-6.5678326e-07 -1.6455198e-07 -5.0566708e-09)
(-7.2874363e-07 3.4682395e-08 1.2520611e-08)
(-6.8573173e-07 2.2866133e-07 2.6675401e-08)
(-5.1768838e-07 3.9617473e-07 3.4900874e-08)
(-3.8696932e-07 -1.1171584e-07 -1.1963315e-08)
(-5.3155205e-07 -5.1197261e-08 -4.3256174e-09)
(-6.008501e-07 1.3351725e-08 6.8617395e-09)
(-5.6504664e-07 7.6514683e-08 1.5464356e-08)
(-4.3427611e-07 1.3386578e-07 1.735902e-08)
(-1.2997749e-06 -1.6026204e-06 -6.6673164e-08)
(-1.8560231e-06 -9.0785101e-07 2.6403918e-08)
(-2.0715988e-06 -5.0050467e-09 1.1447597e-07)
(-1.8694898e-06 8.9537405e-07 1.8306345e-07)
(-1.3112435e-06 1.5845215e-06 2.2704949e-07)
(-8.8909951e-07 -9.7767463e-07 -5.3728234e-08)
(-1.2481078e-06 -5.4614994e-07 9.7028609e-09)
(-1.3821092e-06 1.3327923e-08 7.1204252e-08)
(-1.2629259e-06 5.6757649e-07 1.2480752e-07)
(-9.0593455e-07 9.9123701e-07 1.6993816e-07)
(-6.2468745e-07 -5.9299028e-07 -4.6499988e-08)
(-8.6502052e-07 -3.1830788e-07 8.5776471e-10)
(-9.5787239e-07 2.3242244e-08 4.6481e-08)
(-8.9158068e-07 3.5689091e-07 8.6827707e-08)
(-6.5506345e-07 6.1729437e-07 1.2176658e-07)
(-4.5929638e-07 -3.2292997e-07 -3.16412e-08)
(-6.3187533e-07 -1.6520784e-07 -2.8579274e-11)
(-7.0691041e-07 2.1600627e-08 3.1673412e-08)
(-6.688738e-07 2.0385222e-07 5.8677725e-08)
(-5.0263847e-07 3.5270467e-07 7.6796184e-08)
(-3.7768201e-07 -1.0273338e-07 -1.9356154e-08)
(-5.2036038e-07 -5.0846961e-08 3.9715326e-10)
(-5.8866488e-07 8.6242231e-09 2.4371696e-08)
(-5.6033583e-07 6.7222492e-08 4.365482e-08)
(-4.2714896e-07 1.1699535e-07 5.1115562e-08)
(-1.2173294e-06 -1.5608936e-06 -1.0857739e-07)
(-1.753324e-06 -9.1149665e-07 -6.2185421e-09)
(-1.9736652e-06 -5.454159e-08 1.0891325e-07)
(-1.7932498e-06 8.1440984e-07 2.1071196e-07)
(-1.2814323e-06 1.4915706e-06 2.7693665e-07)
(-8.3179622e-07 -9.5496058e-07 -7.0405249e-08)
(-1.1771204e-06 -5.481085e-07 5.3644882e-10)
(-1.3131439e-06 -1.4700787e-08 7.9224206e-08)
(-1.206883e-06 5.1731276e-07 1.4883162e-07)
(-8.7980594e-07 9.2715395e-07 1.9597182e-07)
(-5.8222821e-07 -5.7741474e-07 -4.9918446e-08)
(-8.1306417e-07 -3.1870923e-07 3.4655327e-09)
(-9.0824391e-07 6.237056e-09 6.1179237e-08)
(-8.5139511e-07 3.2439739e-07 1.1179173e-07)
(-6.3347433e-07 5.7251111e-07 1.4730291e-07)
(-4.2785824e-07 -3.1253869e-07 -3.8338917e-08)
(-5.9346865e-07 -1.6501173e-07 4.9928279e-09)
(-6.7003732e-07 1.2580045e-08 5.2397616e-08)
(-6.4060896e-07 1.855001e-07 9.2569495e-08)
(-4.8676726e-07 3.2553694e-07 1.1911079e-07)
(-3.5190355e-07 -9.9438665e-08 -3.4154935e-08)
(-4.878242e-07 -5.0771424e-08 6.5831776e-09)
(-5.5759243e-07 6.0580885e-09 5.0136045e-08)
(-5.3830277e-07 6.1506615e-08 8.4493784e-08)
(-4.1477552e-07 1.0820449e-07 1.0526107e-07)
(-1.1338798e-06 -1.4922227e-06 -1.2637133e-07)
(-1.6385324e-06 -8.9286124e-07 -2.7897092e-08)
(-1.8546683e-06 -9.0416714e-08 9.9394831e-08)
(-1.7014664e-06 7.3146803e-07 2.1421289e-07)
(-1.2358829e-06 1.3792129e-06 2.826033e-07)
(-7.7578697e-07 -9.1901568e-07 -7.7926875e-08)
(-1.0984784e-06 -5.3646586e-07 -7.5436798e-09)
(-1.233814e-06 -3.4406095e-08 7.7827494e-08)
(-1.1461783e-06 4.6865627e-07 1.5274882e-07)
(-8.5013464e-07 8.6160326e-07 1.9856349e-07)
(-5.3774557e-07 -5.6092395e-07 -5.4801017e-08)
(-7.5392284e-07 -3.1385151e-07 2.3839775e-09)
(-8.4954619e-07 -3.5843451e-09 6.7913894e-08)
(-8.0545701e-07 3.0062879e-07 1.247648e-07)
(-6.1105272e-07 5.4043335e-07 1.6167569e-07)
(-3.8712675e-07 -3.071749e-07 -4.7979816e-08)
(-5.4113879e-07 -1.6208834e-07 9.1828297e-09)
(-6.1933375e-07 1.0570286e-08 6.9571331e-08)
(-6.0216062e-07 1.7657572e-07 1.1826124e-07)
(-4.6914829e-07 3.1068938e-07 1.4905344e-07)
(-3.1089278e-07 -9.8558939e-08 -4.6301883e-08)
(-4.360694e-07 -4.9255312e-08 1.6690516e-08)
(-5.1075427e-07 6.3757902e-09 7.4352737e-08)
(-5.052108e-07 5.9169941e-08 1.1627242e-07)
(-4.0023078e-07 1.0317541e-07 1.400746e-07)
(-1.0565948e-06 -1.4019707e-06 -1.186427e-07)
(-1.5275578e-06 -8.5049435e-07 -4.52489e-08)
(-1.7315552e-06 -1.0632057e-07 6.3918323e-08)
(-1.6100414e-06 6.5737007e-07 1.7140008e-07)
(-1.1837783e-06 1.2620028e-06 2.4623887e-07)
(-7.284611e-07 -8.8339027e-07 -6.4069803e-08)
(-1.0213661e-06 -5.1782743e-07 -1.3518238e-08)
(-1.1528514e-06 -4.6181723e-08 5.6825948e-08)
(-1.086147e-06 4.2786467e-07 1.2438041e-07)
(-8.1952331e-07 8.0622634e-07 1.727968e-07)
(-4.958802e-07 -5.4746768e-07 -4.7411114e-08)
(-6.9034926e-07 -3.0198272e-07 -1.0567812e-09)
(-7.8586309e-07 -2.0191069e-09 5.3929345e-08)
(-7.5763331e-07 2.8990981e-07 1.0550804e-07)
(-5.9009303e-07 5.2300106e-07 1.4402917e-07)
(-3.3695136e-07 -3.0405147e-07 -4.83512e-08)
(-4.759175e-07 -1.5070144e-07 3.7166221e-09)
(-5.6095891e-07 1.9037146e-08 5.5728369e-08)
(-5.6112686e-07 1.7703662e-07 1.0118482e-07)
(-4.5338061e-07 3.0397083e-07 1.3554535e-07)
(-2.5110477e-07 -9.7772696e-08 -5.2196315e-08)
(-3.6716958e-07 -4.3261516e-08 6.032911e-09)
(-4.5801053e-07 1.0856718e-08 5.7729165e-08)
(-4.7258091e-07 5.9547139e-08 9.9303631e-08)
(-3.8768086e-07 9.9262725e-08 1.2965493e-07)
)
;

boundaryField
{
    movingWall
    {
        type            fixedValue;
        value           uniform (0 0 0);
    }
    CPLReceiveMD
    {
        type            fixedValue;
        value           nonuniform 0();
    }
    streamwiseIn
    {
        type            cyclic;
    }
    streamwiseOut
    {
        type            cyclic;
    }
    front
    {
        type            cyclic;
    }
    back
    {
        type            cyclic;
    }
    procBoundary8to5
    {
        type            processor;
        value           nonuniform List<vector> 
25
(
(-2.0520014e-06 -2.663051e-06 -2.6659837e-08)
(-2.9729927e-06 -1.4826626e-06 7.8177218e-08)
(-3.2802522e-06 6.183027e-08 1.7012978e-07)
(-2.8969679e-06 1.5752264e-06 2.1797526e-07)
(-1.9489332e-06 2.6792369e-06 2.1113346e-07)
(-1.9289375e-06 -2.6059784e-06 -1.0819418e-07)
(-2.8457232e-06 -1.5004775e-06 3.9349184e-08)
(-3.1853343e-06 -3.4231881e-08 1.8132616e-07)
(-2.8524525e-06 1.4317183e-06 2.805509e-07)
(-1.9527326e-06 2.5393087e-06 3.2529891e-07)
(-1.7849107e-06 -2.5117901e-06 -1.8080298e-07)
(-2.6834724e-06 -1.5001746e-06 -1.4453321e-08)
(-3.0390504e-06 -1.2549914e-07 1.6463587e-07)
(-2.7529952e-06 1.2862032e-06 3.1273764e-07)
(-1.9163881e-06 2.383549e-06 4.0128045e-07)
(-1.6387564e-06 -2.3734663e-06 -2.3684973e-07)
(-2.5002843e-06 -1.4649196e-06 -6.8545977e-08)
(-2.8581433e-06 -1.8813874e-07 1.2960647e-07)
(-2.6158079e-06 1.1486327e-06 3.0978859e-07)
(-1.8518826e-06 2.1999697e-06 4.2813125e-07)
(-1.5220242e-06 -2.1926808e-06 -2.475007e-07)
(-2.3170162e-06 -1.3910537e-06 -1.0314673e-07)
(-2.6607159e-06 -2.136244e-07 7.8531498e-08)
(-2.4544704e-06 1.0265438e-06 2.5267349e-07)
(-1.7690171e-06 1.99984e-06 3.7719062e-07)
)
;
    }
    procBoundary8to6throughstreamwiseOut
    {
        type            processorCyclic;
        value           nonuniform List<vector> 
25
(
(-5.1862229e-07 1.9924309e-06 1.1599642e-07)
(-3.7706281e-07 1.2482601e-06 9.5625763e-08)
(-2.8829676e-07 7.9949433e-07 6.9191686e-08)
(-2.4207205e-07 4.7306815e-07 3.6754907e-08)
(-2.222595e-07 1.5979764e-07 1.5994674e-08)
(-5.3899086e-07 1.9421722e-06 2.1513452e-07)
(-3.884261e-07 1.2237565e-06 1.716571e-07)
(-2.8885122e-07 7.6018699e-07 1.3214518e-07)
(-2.3159158e-07 4.3165924e-07 8.9598845e-08)
(-2.059145e-07 1.4258639e-07 6.3155414e-08)
(-5.5656703e-07 1.850992e-06 2.8607247e-07)
(-3.9663224e-07 1.1652708e-06 2.0463152e-07)
(-2.9008959e-07 7.1743607e-07 1.5580246e-07)
(-2.2916988e-07 4.0409431e-07 1.2605967e-07)
(-2.0314044e-07 1.3337667e-07 1.1141196e-07)
(-5.6188584e-07 1.733216e-06 3.1186697e-07)
(-3.9928846e-07 1.0934865e-06 2.1303146e-07)
(-2.9323816e-07 6.8161514e-07 1.6814611e-07)
(-2.3662767e-07 3.8729664e-07 1.5164789e-07)
(-2.1387665e-07 1.2797017e-07 1.4336707e-07)
(-5.5674044e-07 1.6068638e-06 2.7801249e-07)
(-3.9738094e-07 1.0215499e-06 1.9433033e-07)
(-3.0033584e-07 6.5605251e-07 1.55788e-07)
(-2.5482821e-07 3.7935107e-07 1.3790003e-07)
(-2.3650893e-07 1.2513361e-07 1.2672438e-07)
)
;
    }
    procBoundary8to7
    {
        type            processor;
        value           nonuniform List<vector> 
25
(
(-5.8632901e-07 -1.989972e-06 -6.6915331e-08)
(-4.1462022e-07 -1.2365014e-06 -5.6171572e-08)
(-2.9908451e-07 -7.7154093e-07 -4.8803761e-08)
(-2.2884467e-07 -4.4072564e-07 -3.4821446e-08)
(-1.946599e-07 -1.4542456e-07 -2.3642874e-08)
(-5.285298e-07 -1.947689e-06 -1.3344478e-07)
(-3.8024457e-07 -1.2212374e-06 -1.0238065e-07)
(-2.7978623e-07 -7.4811102e-07 -8.0153137e-08)
(-2.1587953e-07 -4.1211979e-07 -5.3486928e-08)
(-1.8353133e-07 -1.3234694e-07 -3.4668616e-08)
(-4.7996392e-07 -1.8646111e-06 -1.7211367e-07)
(-3.4964659e-07 -1.1832097e-06 -1.1277609e-07)
(-2.5891611e-07 -7.2264721e-07 -8.3476344e-08)
(-2.0003762e-07 -3.9524951e-07 -6.7176802e-08)
(-1.7092003e-07 -1.2661961e-07 -6.0206047e-08)
(-4.3799383e-07 -1.7558307e-06 -1.8863172e-07)
(-3.2275609e-07 -1.1326001e-06 -1.1087879e-07)
(-2.3906741e-07 -7.0251173e-07 -8.3964027e-08)
(-1.8433883e-07 -3.8886451e-07 -8.1724056e-08)
(-1.5743849e-07 -1.2539291e-07 -8.4108259e-08)
(-4.0648139e-07 -1.6440575e-06 -1.8587563e-07)
(-3.0628898e-07 -1.078542e-06 -1.0783362e-07)
(-2.2611111e-07 -6.9349247e-07 -7.1453224e-08)
(-1.7144733e-07 -3.9541505e-07 -5.9257919e-08)
(-1.4262253e-07 -1.2902413e-07 -5.459246e-08)
)
;
    }
    procBoundary8to17
    {
        type            processor;
        value           nonuniform List<vector> 
25
(
(-9.9325308e-07 -1.3087918e-06 -1.0563594e-07)
(-1.4559714e-06 -8.0323275e-07 -5.3192565e-08)
(-1.6380193e-06 -1.1212226e-07 1.6271551e-08)
(-1.5191458e-06 6.0317494e-07 8.980184e-08)
(-1.1292705e-06 1.1748191e-06 1.5920583e-07)
(-6.8147159e-07 -8.4778409e-07 -5.0920573e-08)
(-9.7758264e-07 -4.9227374e-07 -1.8145172e-08)
(-1.0959154e-06 -4.4395073e-08 2.46389e-08)
(-1.0302075e-06 4.0276423e-07 7.1286904e-08)
(-7.8018473e-07 7.5939355e-07 1.2026609e-07)
(-4.6734913e-07 -5.4520534e-07 -3.1243365e-08)
(-6.5258238e-07 -2.9661665e-07 -5.5548065e-09)
(-7.4298136e-07 -4.6819239e-09 2.4252327e-08)
(-7.1535719e-07 2.7743321e-07 5.9327149e-08)
(-5.6077277e-07 5.031819e-07 1.0031593e-07)
(-3.2415221e-07 -3.1197369e-07 -2.2634994e-08)
(-4.3705922e-07 -1.5499782e-07 -5.0816009e-09)
(-5.2186554e-07 1.4383946e-08 1.5373492e-08)
(-5.2234364e-07 1.7039578e-07 4.4315982e-08)
(-4.3243309e-07 2.9634741e-07 8.0568674e-08)
(-2.5026741e-07 -1.0241611e-07 -1.6295088e-08)
(-3.2614392e-07 -4.6938234e-08 -9.6461647e-09)
(-4.1748355e-07 8.3902336e-09 5.0113461e-09)
(-4.3328504e-07 5.7313696e-08 3.1118879e-08)
(-3.7281004e-07 9.7318556e-08 6.4916657e-08)
)
;
    }
    procBoundary8to26throughfront
    {
        type            processorCyclic;
        value           nonuniform List<vector> 
25
(
(-1.4132454e-06 -1.5981054e-06 1.7601712e-08)
(-9.612352e-07 -9.6950678e-07 7.1186522e-09)
(-6.7252922e-07 -6.0041915e-07 -3.4979481e-09)
(-4.8906116e-07 -3.4488452e-07 -1.2480769e-08)
(-3.9699926e-07 -1.1451008e-07 -1.642313e-08)
(-1.979338e-06 -8.4563791e-07 4.6002661e-08)
(-1.3310154e-06 -4.9863278e-07 1.8409406e-08)
(-9.2519357e-07 -2.972871e-07 1.1663443e-09)
(-6.6814184e-07 -1.6184396e-07 -6.8740493e-09)
(-5.3918544e-07 -5.1576821e-08 -7.664643e-09)
(-2.1478049e-06 1.1339196e-07 5.3934284e-08)
(-1.4430884e-06 8.4637635e-08 2.05179e-08)
(-1.0073102e-06 6.2454408e-08 3.1320758e-09)
(-7.3864249e-07 4.0988778e-08 -2.4901241e-09)
(-6.0845485e-07 1.4279862e-08 -2.1160222e-09)
(-1.8995942e-06 1.036406e-06 4.1982802e-08)
(-1.3066603e-06 6.418619e-07 1.1829646e-08)
(-9.3188885e-07 4.0715887e-07 -1.3531186e-09)
(-6.9125406e-07 2.3685884e-07 -3.4320383e-09)
(-5.7083311e-07 7.8426749e-08 -1.3340867e-09)
(-1.3044787e-06 1.7001878e-06 1.3976118e-08)
(-9.2461695e-07 1.052343e-06 -1.0407382e-08)
(-6.7577931e-07 6.7786067e-07 -1.7100865e-08)
(-5.1271798e-07 4.0190144e-07 -1.1179769e-08)
(-4.2767928e-07 1.345284e-07 -2.5313715e-09)
)
;
    }
}


// ************************************************************************* //
