/*--------------------------------*- C++ -*----------------------------------*\
| =========                 |                                                 |
| \\      /  F ield         | OpenFOAM: The Open Source CFD Toolbox           |
|  \\    /   O peration     | Version:  3.0.1                                 |
|   \\  /    A nd           | Web:      www.OpenFOAM.org                      |
|    \\/     M anipulation  |                                                 |
\*---------------------------------------------------------------------------*/
FoamFile
{
    version     2.0;
    format      ascii;
    class       volScalarField;
    location    "0.1";
    object      p;
}
// * * * * * * * * * * * * * * * * * * * * * * * * * * * * * * * * * * * * * //

dimensions      [0 2 -2 0 0 0 0];

internalField   nonuniform List<scalar> 
125
(
-0.024657128
-0.058937828
-0.032192761
-0.011737545
-0.044796111
-0.027306196
-0.042892724
-0.038421096
-0.033926153
-0.04567834
-0.0339666
-0.04019037
-0.041672828
-0.042855015
-0.048272009
-0.039907645
-0.042272624
-0.04430817
-0.046495828
-0.049805834
-0.044194222
-0.045022436
-0.046514817
-0.048405173
-0.050723561
-0.028106903
-0.12962048
-0.044219223
0.048970336
-0.021765573
-0.034250144
-0.056435642
-0.043153058
-0.025447429
-0.038701743
-0.038539983
-0.044464071
-0.043929232
-0.042073039
-0.04632993
-0.042409418
-0.044257399
-0.045562044
-0.04678149
-0.049327519
-0.045472775
-0.046068114
-0.047240391
-0.048730717
-0.050647629
0.02128647
-0.049860756
-0.07377939
-0.037143321
-0.033018321
-0.026570384
-0.044203048
-0.050496882
-0.043859251
-0.04589344
-0.038360084
-0.043415181
-0.04665316
-0.047085926
-0.049111674
-0.043065447
-0.044767588
-0.046841466
-0.048485955
-0.050355319
-0.0459318
-0.046546257
-0.047885233
-0.049418973
-0.051066091
0.003094316
-0.031462864
-0.061668361
-0.061927419
-0.086733407
-0.026862226
-0.038441801
-0.051305701
-0.057071639
-0.064296415
-0.037340153
-0.042048292
-0.048135992
-0.052309436
-0.055076045
-0.042380961
-0.044475463
-0.047665185
-0.050426829
-0.052347697
-0.045533858
-0.046463281
-0.048254716
-0.050149924
-0.051789659
-0.013114618
-0.014970285
-0.055592878
-0.094846675
-0.2277959
-0.025703365
-0.034792681
-0.052016326
-0.068749524
-0.09042948
-0.034476578
-0.040489659
-0.048828496
-0.056071488
-0.060857172
-0.040349409
-0.043529428
-0.047851035
-0.051615708
-0.053936067
-0.044329006
-0.045855665
-0.048204573
-0.050509705
-0.052331474
)
;

boundaryField
{
    movingWall
    {
        type            zeroGradient;
    }
    CPLReceiveMD
    {
        type            zeroGradient;
    }
    streamwiseIn
    {
        type            cyclic;
    }
    streamwiseOut
    {
        type            cyclic;
    }
    front
    {
        type            cyclic;
    }
    back
    {
        type            cyclic;
    }
    procBoundary9to0
    {
        type            processor;
        value           nonuniform List<scalar> 
25
(
-0.01079667
-0.061004325
-0.029039747
-0.018215653
-0.052759689
-0.016183209
-0.036101834
-0.036703917
-0.039376566
-0.052930381
-0.027629344
-0.035909305
-0.040322219
-0.044650437
-0.051255343
-0.036645999
-0.039946181
-0.043303339
-0.046803775
-0.050805237
-0.042552239
-0.043763912
-0.045823228
-0.048286705
-0.051001741
)
;
    }
    procBoundary9to10
    {
        type            processor;
        value           nonuniform List<scalar> 
25
(
-0.059315807
-0.055426863
-0.05372158
-0.053236489
-0.053135585
-0.038892511
-0.047064463
-0.05047676
-0.052016225
-0.052672095
-0.042199408
-0.046375224
-0.049939539
-0.051809706
-0.052637992
-0.054701635
-0.050595713
-0.051540483
-0.052526492
-0.053010615
-0.055155913
-0.053098371
-0.053153702
-0.053440583
-0.053525456
)
;
    }
    procBoundary9to11throughstreamwiseIn
    {
        type            processorCyclic;
        value           nonuniform List<scalar> 
25
(
0.016359829
-0.011889008
-0.030216489
-0.039962585
-0.045132296
-0.01047651
-0.028533929
-0.037799113
-0.043206092
-0.046521554
-0.032694235
-0.037077144
-0.041235276
-0.044539397
-0.047008169
-0.034774821
-0.03622522
-0.039901716
-0.043517147
-0.046359016
-0.029182553
-0.026610615
-0.033767975
-0.040170199
-0.04461675
)
;
    }
    procBoundary9to12
    {
        type            processor;
        value           nonuniform List<scalar> 
25
(
-0.047071961
-0.047301006
-0.04825066
-0.049643557
-0.051320778
-0.04771424
-0.047870391
-0.048679753
-0.049885511
-0.051352089
-0.047946881
-0.048153676
-0.049012615
-0.050204198
-0.051556981
-0.04770953
-0.048099188
-0.049158522
-0.050484316
-0.051849387
-0.047038857
-0.047718541
-0.049058074
-0.050587218
-0.052062133
)
;
    }
    procBoundary9to18
    {
        type            processor;
        value           nonuniform List<scalar> 
25
(
-0.0074815852
-0.039460934
-0.060835076
-0.074850983
-0.097999835
-0.01839134
-0.037152178
-0.052842589
-0.062082175
-0.067681654
-0.02920225
-0.039260933
-0.048423337
-0.054058294
-0.056469908
-0.03718143
-0.042153118
-0.047253775
-0.050904803
-0.053030763
-0.042566551
-0.044881578
-0.047718048
-0.050186985
-0.052145532
)
;
    }
}


// ************************************************************************* //
