/*--------------------------------*- C++ -*----------------------------------*\
| =========                 |                                                 |
| \\      /  F ield         | OpenFOAM: The Open Source CFD Toolbox           |
|  \\    /   O peration     | Version:  3.0.1                                 |
|   \\  /    A nd           | Web:      www.OpenFOAM.org                      |
|    \\/     M anipulation  |                                                 |
\*---------------------------------------------------------------------------*/
FoamFile
{
    version     2.0;
    format      ascii;
    class       surfaceScalarField;
    location    "0.1";
    object      phi;
}
// * * * * * * * * * * * * * * * * * * * * * * * * * * * * * * * * * * * * * //

dimensions      [0 3 -1 0 0 0 0];

internalField   nonuniform List<scalar> 
300
(
0.19572471
0.005302309
0.0069079655
0.082598797
-0.032064814
0.14112403
0.052447645
0.012444283
0.024024131
0.11634291
0.044343098
-0.12119922
0.0017733403
-0.045999875
0.031190058
0.013319529
0.013879001
-0.0088949405
-0.0054097644
0.027060575
-0.0089559314
0.0065036279
0.0094633221
0.023501355
0.017861893
-0.016934758
0.0051895885
-0.013942205
0.012442769
0.011882596
0.0091439048
0.0029678172
0.0041626922
0.0085429371
0.0023660196
0.0052719942
0.0045123047
0.010828247
0.0072851199
-0.0015602561
0.0030681769
-0.0038809717
0.0047285591
0.0085745304
0.0050024414
0.0040708249
0.0054998186
0.0039684896
0.0043738539
0.0044139856
0.0025074672
0.006615964
0.0038199095
0.00057190553
0.001835777
-0.00095576954
0.0016560835
0.0025566442
0.0029835421
0.0020910214
0.0037781391
0.0014509829
0.0046327527
0.00065107135
-0.0001517741
0.27235009
0.012270808
-0.098623226
0.71884826
-0.14615692
-0.159255
0.68602155
-0.00213144
0.059029729
0.24427007
0.14863165
0.17196129
0.033851254
0.02251332
0.044350083
0.0085770648
-0.015343339
-0.026319914
-0.023927727
-0.024441649
-0.035167915
0.0015516797
0.014680287
0.026505848
0.03323816
0.036799424
0.015260176
0.014381433
0.0118402
0.0077401012
-0.00035733293
-0.0010659437
-0.0004190694
-0.0020945053
-0.0037082215
0.0032662045
0.0054460793
0.0085067647
0.0094243355
0.010021329
0.0059972455
0.0055625451
0.0036942841
0.0061280779
0.0013121468
0.0026090841
0.0036210535
0.00102061
0.002437844
0.0033571832
0.0025581632
0.0050880305
0.0039002191
0.0034078128
0.0026408312
0.0020552502
0.0011903891
0.00091782418
0.0023433327
0.00095620891
0.0029781065
0.0012894486
0.0038298661
0.0013761451
0.00083671487
0.17825277
0.095585327
0.036301513
0.067124149
-0.011308167
-0.036751732
0.19685531
-0.046498085
-0.024169649
0.30583405
0.013429328
0.049546158
0.025714778
0.10730798
0.03524542
0.023572249
0.00057644658
0.012591383
-0.0015774459
-0.01152617
-0.013192332
-0.0076821259
0.0016217483
0.004137767
0.0064579884
0.026426944
0.0064336215
0.036802854
0.010103597
0.0094163738
-0.0020408821
0.0064750482
0.0027052415
-0.0027342106
0.0008675948
0.00037557106
0.0029653099
0.0040473602
0.0028017273
0.01044533
0.0024881048
0.011925999
0.0034028882
0.0057348963
-0.0013692911
0.0041465659
0.0035581786
-0.00058451593
0.00328746
0.002087847
0.0016468827
0.0037353023
0.0018666515
0.0038807423
0.0014214785
0.0039836576
0.0012287788
-0.00079603705
0.0026765279
-0.00016597929
0.0030647803
0.00073885262
0.0032904169
0.0014615975
0.0014467632
0.18014946
0.059847755
0.032347201
0.16236216
0.013948737
-0.032937819
0.17101254
-0.020701627
-0.012121308
0.16450819
-0.0097135288
0.06576903
-0.044845972
0.2816577
0.023172556
0.020954952
-0.0023210139
0.025746856
0.0072153722
-0.0072955284
0.011580235
-0.0063372465
0.0014207553
0.014460274
-0.0095249836
0.023342446
-0.01844655
0.052223094
0.0094123847
0.010086001
-0.0057275447
0.012172684
0.0048567569
-0.0031172333
0.0083462301
-0.00094122547
0.0013841422
0.0055277206
-0.0037653238
0.0075202992
-0.0054600966
0.011554284
0.0041880863
0.006308074
-0.0040631693
0.0063777268
0.0039772705
-0.001892271
0.0055211103
0.0011797747
0.00037116565
0.0038382439
-0.00055391405
0.0023765696
-0.0011175102
0.0031749334
0.0018589019
-0.0024097671
0.0035813447
-0.0012152685
0.0037875378
-0.00010037526
0.0032756602
0.00071931313
0.001083205
0.25736302
0.025161913
0.13593863
0.039592527
0.12051596
-0.0071505968
0.27840282
-0.052164172
-0.27435386
0.018240445
0.017546882
0.034453918
0.011391307
0.03348001
-0.0063737377
0.043314186
-0.02536065
-0.059118931
0.012024107
0.011747875
0.016674696
0.0060829317
0.014483871
-0.0019536927
0.009562075
-0.0089140777
-0.013854811
0.0063592024
0.0079611953
0.0086413833
0.004654498
0.0075268917
0.00070808243
0.0046369153
-0.0022127615
-0.0032120165
0.0030534266
0.0046963176
0.0046073356
0.0036396638
)
;

boundaryField
{
    movingWall
    {
        type            calculated;
        value           nonuniform 0();
    }
    CPLReceiveMD
    {
        type            calculated;
        value           uniform 0;
    }
    streamwiseIn
    {
        type            cyclic;
        value           nonuniform 0();
    }
    streamwiseOut
    {
        type            cyclic;
        value           nonuniform 0();
    }
    front
    {
        type            cyclic;
        value           nonuniform 0();
    }
    back
    {
        type            cyclic;
        value           nonuniform 0();
    }
    procBoundary9to0
    {
        type            processor;
        value           nonuniform List<scalar> 
25
(
-0.027716208
0.0040938178
-0.006300782
0.012965953
0.01593981
-0.022242943
-0.013589854
-0.0034349088
0.010906441
0.014507346
-0.012672231
-0.0085618709
-0.0027014622
0.0035902777
0.005965302
-0.0065222111
-0.0046524076
-0.0020097959
0.00061533888
0.001998011
-0.0032836553
-0.0025168853
-0.0013832136
-0.00023707527
0.00055621772
)
;
    }
    procBoundary9to10
    {
        type            processor;
        value           nonuniform List<scalar> 
25
(
0.14460884
0.01952479
0.010895913
0.0068575862
0.0048198637
0.14188465
0.016752026
0.0082906947
0.0053739703
0.0040449679
0.19531652
0.0010040485
0.001654003
0.0029060874
0.0031401339
0.035012326
-0.027365001
-0.0070687122
0.00035602458
0.0024385002
1.0935207
-0.074259677
-0.015398736
-0.00099137716
0.0023847846
)
;
    }
    procBoundary9to11throughstreamwiseIn
    {
        type            processorCyclic;
        value           nonuniform List<scalar> 
25
(
-0.18021651
-0.030850815
-0.0074963177
0.00011026094
0.0018749512
-0.1790718
-0.011469267
-0.0014809289
0.0015927469
0.0020960242
-0.40881289
0.020869601
0.0057473755
0.0029462368
0.0021508426
-0.23600887
0.018636534
0.0051202664
0.0022706985
0.0016483021
-0.238948
0.0017437342
-0.0014174418
-0.00035915562
0.00057366654
)
;
    }
    procBoundary9to12
    {
        type            processor;
        value           nonuniform List<scalar> 
25
(
0.0057559599
0.00455704
0.0034715189
0.0024768276
0.0011945237
0.004483296
0.0036042724
0.0028784386
0.0023096736
0.0014090287
0.0040306645
0.0032147963
0.0022544542
0.0015702657
0.00098161224
0.0043520537
0.0032720956
0.0018074611
0.00066841804
0.0001188553
0.0054205172
0.0037262891
0.0017069967
0.00015447304
-0.00053939462
)
;
    }
    procBoundary9to18
    {
        type            processor;
        value           nonuniform List<scalar> 
25
(
-0.011264573
0.048902273
0.010474524
-0.039942155
-0.2591604
-0.014619667
0.004713743
0.0016544878
-0.01332211
-0.045458079
-0.010546775
-0.0024575213
-0.00080955035
-0.0040237273
-0.0087689392
-0.0063352605
-0.0027525573
-0.0011944546
-0.0014214249
-0.0018098911
-0.0035249069
-0.0019483921
-0.00097326928
-0.00064550759
-0.00037176099
)
;
    }
}


// ************************************************************************* //
