/*--------------------------------*- C++ -*----------------------------------*\
| =========                 |                                                 |
| \\      /  F ield         | OpenFOAM: The Open Source CFD Toolbox           |
|  \\    /   O peration     | Version:  3.0.1                                 |
|   \\  /    A nd           | Web:      www.OpenFOAM.org                      |
|    \\/     M anipulation  |                                                 |
\*---------------------------------------------------------------------------*/
FoamFile
{
    version     2.0;
    format      ascii;
    class       volVectorField;
    location    "0.1";
    object      U;
}
// * * * * * * * * * * * * * * * * * * * * * * * * * * * * * * * * * * * * * //

dimensions      [0 1 -1 0 0 0 0];

internalField   nonuniform List<vector> 
125
(
(0.00052377842 6.6309709e-06 4.3288853e-05)
(0.00031935846 -4.0109794e-05 0.0001712915)
(0.00026163058 1.5558402e-05 3.7911496e-05)
(0.00011846123 5.5458956e-05 -0.00016770155)
(0.00028343638 2.2264029e-06 -7.7473546e-05)
(7.75955e-05 2.3282795e-05 4.516437e-05)
(2.786179e-05 -4.6864675e-05 5.0831931e-05)
(-2.2324409e-05 2.368902e-05 1.6122279e-05)
(1.8159944e-05 7.7782212e-05 -3.4821698e-05)
(5.3788181e-05 8.7107721e-06 -3.5569941e-05)
(2.4937335e-05 3.1505827e-05 2.7274801e-05)
(1.9266097e-05 -1.5474543e-06 2.1385568e-05)
(6.6589572e-06 1.4720809e-05 9.017487e-06)
(1.6491855e-05 3.1426641e-05 -6.4426615e-06)
(2.7159545e-05 1.0319338e-05 -1.2312279e-05)
(5.7780599e-06 2.5572878e-05 1.4407765e-05)
(1.1001651e-05 1.2083702e-05 1.0777534e-05)
(1.0554536e-05 1.2107702e-05 5.6467818e-06)
(1.3736687e-05 1.3877097e-05 -5.5462499e-08)
(1.6842641e-05 6.1292498e-06 -3.6938765e-06)
(-2.71662e-07 1.7912933e-05 7.3012289e-06)
(5.8009019e-06 1.2572655e-05 5.7604024e-06)
(8.4523278e-06 9.8571121e-06 3.5428329e-06)
(1.0513398e-05 7.8697483e-06 1.1098069e-06)
(1.1815625e-05 3.7874949e-06 -8.8558281e-07)
(0.0004937741 1.5335166e-05 -0.00011464487)
(0.00019216393 -0.00018270541 -2.2675426e-05)
(0.0038491114 -2.6696429e-06 0.00010382198)
(9.5308411e-06 0.00018580507 6.345568e-05)
(0.00066893347 4.2342119e-05 -2.936574e-05)
(6.9805359e-05 2.6061039e-05 -1.8419313e-06)
(2.2296113e-05 -0.00021263276 3.2738839e-06)
(-7.6399333e-05 -7.2785118e-07 3.0188533e-05)
(-1.1115259e-05 0.00022736978 2.4833017e-05)
(5.41499e-05 6.1412586e-05 5.3902e-07)
(1.6664926e-05 2.0401411e-05 1.098239e-05)
(1.347431e-05 -3.0441649e-05 8.0609504e-06)
(-5.9793385e-06 6.0256877e-06 1.245e-05)
(5.9964944e-06 5.3336737e-05 1.0577026e-05)
(2.1002766e-05 2.6564242e-05 2.1000483e-06)
(2.6312115e-06 1.7336358e-05 7.8938358e-06)
(7.8821693e-06 4.0140206e-06 6.2368658e-06)
(6.3068723e-06 8.280612e-06 6.3326461e-06)
(9.4065247e-06 1.6645488e-05 4.9748898e-06)
(1.3078289e-05 1.0793723e-05 1.3739047e-06)
(-1.1305645e-06 1.3264554e-05 4.3434525e-06)
(4.4185545e-06 9.0342666e-06 3.8093088e-06)
(6.6518616e-06 7.7950743e-06 3.4257166e-06)
(8.5096006e-06 7.7602237e-06 2.534053e-06)
(9.8433486e-06 5.0610342e-06 8.5598865e-07)
(0.00021981636 0.0001194925 -7.7925524e-05)
(0.00024130891 -1.4148453e-05 -0.00024501405)
(6.1054761e-05 -5.8126908e-05 4.3572989e-05)
(0.0011554798 1.6804347e-05 0.00027688208)
(0.00032576192 3.2145417e-05 0.00016234425)
(1.7861115e-05 0.00014896817 -1.8471094e-05)
(5.981817e-05 -1.6116453e-05 -4.4985719e-05)
(-8.3687608e-07 -6.773475e-05 2.0379986e-05)
(-1.119746e-05 2.4871728e-05 7.9059317e-05)
(6.3640176e-06 4.0190858e-05 6.3986679e-05)
(5.4522792e-06 4.1241601e-05 -3.0005794e-06)
(2.0733689e-05 1.4155292e-06 -6.0407337e-06)
(9.1750145e-06 -9.1350851e-06 1.0515248e-05)
(6.1419764e-06 1.1568509e-05 2.5589922e-05)
(7.1281156e-06 1.1154225e-05 2.1865462e-05)
(5.7359195e-07 1.8933941e-05 -7.1926681e-08)
(9.4404609e-06 7.8320608e-06 5.4434051e-07)
(9.2925598e-06 3.0834186e-06 5.2568517e-06)
(8.7779454e-06 5.8341242e-06 9.112613e-06)
(8.3013341e-06 4.8851902e-06 7.5505355e-06)
(-1.1514241e-06 1.2206192e-05 1.5221505e-07)
(4.883166e-06 8.4672923e-06 9.8775474e-07)
(7.177072e-06 5.4290892e-06 2.5356878e-06)
(7.9436696e-06 4.2959847e-06 3.5478319e-06)
(8.0376308e-06 3.0035059e-06 2.8550671e-06)
(0.00031782126 7.4829312e-05 8.5815051e-05)
(0.00039131634 1.7445293e-05 -8.712625e-05)
(0.00035661937 -2.5884216e-05 -4.5362732e-05)
(0.00063443877 -1.2155493e-05 0.00014420713)
(-1.5004129e-05 -5.6096144e-05 0.00048621233)
(5.6244517e-06 0.00010102534 -2.167155e-06)
(6.1166323e-05 2.6463038e-05 -2.3526865e-05)
(4.6643632e-05 -3.3807082e-05 3.796682e-06)
(3.2617497e-05 -2.4060316e-05 6.2224004e-05)
(-1.61931e-05 -7.9147159e-05 0.00011133766)
(5.3684804e-06 3.8800583e-05 -9.7091039e-06)
(2.6990142e-05 1.5088426e-05 -7.3151594e-06)
(2.5651067e-05 -9.0974497e-06 5.4365276e-06)
(1.7346739e-05 -1.6609984e-05 2.2462787e-05)
(-1.9281479e-06 -2.9871912e-05 2.9362451e-05)
(2.3988083e-06 2.0489152e-05 -6.7908757e-06)
(1.3210948e-05 1.1042509e-05 -3.0964591e-06)
(1.4875145e-05 3.0105156e-07 2.5228255e-06)
(1.1700208e-05 -5.3966018e-06 7.8237893e-06)
(5.2411393e-06 -8.2166723e-06 8.9514094e-06)
(2.6440078e-07 1.3324519e-05 -4.0074498e-06)
(6.8020272e-06 9.0621169e-06 -1.7265916e-06)
(9.2119388e-06 3.7354582e-06 7.9844776e-07)
(8.8289799e-06 1.4474505e-07 2.7270418e-06)
(7.1416679e-06 -1.2464193e-06 3.1634295e-06)
(0.0011293535 3.1467146e-05 2.6360817e-05)
(0.00020947894 4.9494386e-05 1.9961277e-05)
(0.00037005018 -8.9444284e-06 -2.0615362e-06)
(0.00046977498 -6.5250181e-05 3.2279381e-05)
(-7.4228704e-05 -0.00034297042 2.8125648e-05)
(2.0746737e-05 5.3400986e-05 -2.1176459e-05)
(6.5806868e-05 6.373818e-05 -3.2241357e-06)
(8.4933073e-05 -1.6912449e-05 3.8408721e-06)
(9.6039636e-05 -9.6944232e-05 1.2524349e-05)
(-3.9123788e-05 -0.00041690107 8.4623315e-06)
(1.6805558e-05 3.6617875e-05 -2.0344268e-05)
(3.5879326e-05 2.184594e-05 -6.9688267e-06)
(3.8952966e-05 -1.0408939e-05 7.170027e-07)
(3.0067824e-05 -4.2831714e-05 4.3703876e-06)
(-7.2994967e-06 -9.1232051e-05 3.4834922e-06)
(8.4007595e-06 2.4635595e-05 -1.2999168e-05)
(1.8754162e-05 1.3420629e-05 -5.8066516e-06)
(2.0212808e-05 -1.5546612e-06 -1.0295578e-06)
(1.5206529e-05 -1.3901621e-05 1.1938868e-06)
(4.5543535e-06 -2.1313832e-05 1.7069173e-06)
(3.1013973e-06 1.6726767e-05 -7.4190494e-06)
(9.6890635e-06 1.0476353e-05 -3.9549224e-06)
(1.1630705e-05 3.020595e-06 -1.3421526e-06)
(1.0308651e-05 -2.5697319e-06 9.2360766e-08)
(7.5291512e-06 -4.6844839e-06 8.8962992e-07)
)
;

boundaryField
{
    movingWall
    {
        type            fixedValue;
        value           nonuniform 0();
    }
    CPLReceiveMD
    {
        type            fixedValue;
        value           nonuniform List<vector> 
25
(
(0.67203724 0 0)
(0.39279409 0 0)
(0.35297858 0 0)
(0.65192503 0 0)
(2.3331949 0 0)
(0.6012008 0 0)
(0.30197516 0 0)
(0.0076704932 0 0)
(0.45959565 0 0)
(0.20621697 0 0)
(0.7572791 0 0)
(8.6044284 0 0)
(0.18311049 0 0)
(0.56141484 0 0)
(0.34116312 0 0)
(0.17376142 0 0)
(0.12847796 0 0)
(2.518303 0 0)
(1.1447767 0 0)
(0.079582188 0 0)
(0.32890289 0 0)
(0.90048007 0 0)
(0.62620642 0 0)
(0.0054983897 0 0)
(0.046196954 0 0)
)
;
    }
    streamwiseIn
    {
        type            cyclic;
    }
    streamwiseOut
    {
        type            cyclic;
    }
    front
    {
        type            cyclic;
    }
    back
    {
        type            cyclic;
    }
    procBoundary9to0
    {
        type            processor;
        value           nonuniform List<vector> 
25
(
(0.00042483914 1.3480812e-05 9.680237e-05)
(0.00091027569 -6.2161257e-05 0.00010367402)
(0.0015447634 1.9138026e-05 -3.4695998e-06)
(0.00055988639 5.2841596e-05 -0.00011074125)
(0.00081078897 3.9991066e-07 -0.00018249004)
(0.00011008251 4.2096105e-05 6.0338995e-05)
(5.1515973e-05 -6.2642006e-05 4.7391605e-05)
(8.59453e-06 2.8184864e-05 3.5710451e-06)
(4.0685326e-05 6.6027335e-05 -3.9755636e-05)
(5.9188467e-05 -3.7871038e-06 -4.9627315e-05)
(3.5722419e-05 5.1158018e-05 3.1247903e-05)
(3.1731668e-05 9.612758e-06 2.2235346e-05)
(2.1848726e-05 1.6501188e-05 4.9957897e-06)
(2.7326288e-05 1.8570491e-05 -1.0980385e-05)
(3.0448494e-05 -5.3118279e-06 -1.4441441e-05)
(9.3972622e-06 3.730993e-05 1.559276e-05)
(1.6643153e-05 1.9639186e-05 1.1204921e-05)
(1.7139869e-05 1.3755266e-05 4.2912591e-06)
(1.8747183e-05 9.09302e-06 -1.9433108e-06)
(1.9208704e-05 -6.3297401e-07 -4.2027419e-06)
(8.7632651e-07 2.3967656e-05 7.8975198e-06)
(8.1769505e-06 1.6689211e-05 5.9949985e-06)
(1.1302457e-05 1.1313516e-05 3.0995418e-06)
(1.2938016e-05 6.7080988e-06 4.1722734e-07)
(1.3412625e-05 1.4280621e-06 -1.0875794e-06)
)
;
    }
    procBoundary9to10
    {
        type            processor;
        value           nonuniform List<vector> 
25
(
(0.00050282182 -9.7200496e-06 -8.5041473e-05)
(4.5428414e-05 -1.3983955e-05 -3.9804208e-05)
(2.455352e-05 -5.4777253e-06 -1.5888376e-05)
(1.6140665e-05 -1.4668132e-06 -6.1858778e-06)
(1.1703563e-05 -3.7831879e-07 -2.4594694e-06)
(0.00016678163 2.041157e-05 -4.2775013e-05)
(3.4539099e-05 2.8941504e-05 -2.2628271e-05)
(1.8617127e-05 1.2377386e-05 -9.4544133e-06)
(1.3030341e-05 5.486099e-06 -3.5664168e-06)
(1.0086225e-05 2.2553392e-06 -1.2439411e-06)
(0.00054925032 1.0447766e-05 3.9461468e-05)
(-8.2324067e-06 1.9357786e-05 8.8277313e-06)
(2.9543453e-06 1.3584131e-05 2.659036e-06)
(7.4810043e-06 6.743659e-06 1.2754636e-06)
(8.0725819e-06 2.8190929e-06 8.4615114e-07)
(0.00027784234 -1.0242145e-05 3.2379266e-05)
(-7.6667526e-05 -7.8807164e-06 1.6807798e-05)
(-1.7819819e-05 4.825116e-06 8.0351926e-06)
(1.6139681e-06 3.6732142e-06 4.0768087e-06)
(6.5531434e-06 1.5565652e-06 2.2185623e-06)
(0.0062968117 -5.1405116e-06 4.0096562e-06)
(-0.00018430553 -5.0024648e-06 6.6549254e-06)
(-3.6223819e-05 8.5313994e-07 5.0858099e-06)
(-8.347754e-07 9.2702862e-07 3.3962189e-06)
(6.8174967e-06 2.5135901e-08 2.1896439e-06)
)
;
    }
    procBoundary9to11throughstreamwiseIn
    {
        type            processorCyclic;
        value           nonuniform List<vector> 
25
(
(0.00040684615 7.0625411e-05 0.00017186065)
(4.4566177e-05 0.00011644472 9.1126359e-05)
(-5.2446489e-06 7.0186168e-05 4.0443064e-05)
(-1.3037097e-05 3.7292679e-05 1.7543585e-05)
(-1.1195315e-05 2.009965e-05 7.7672934e-06)
(0.00051233788 4.5111177e-05 0.00012257333)
(-1.3543602e-05 6.8275066e-05 6.2968785e-05)
(-1.6287024e-05 3.6683429e-05 2.7545997e-05)
(-1.3987648e-05 2.1809499e-05 1.1441334e-05)
(-1.0505755e-05 1.3523022e-05 4.6890709e-06)
(0.0021044459 1.0960062e-05 6.0681226e-05)
(-7.5935695e-05 2.1356551e-05 1.9227676e-05)
(-2.8424021e-05 1.865871e-05 5.2557203e-06)
(-1.5347686e-05 1.4435753e-05 7.7674372e-07)
(-9.9825517e-06 1.0621353e-05 -4.0721055e-07)
(0.0010288137 3.6271757e-06 -8.8209706e-06)
(-6.2856427e-05 1.2819303e-05 -2.616603e-05)
(-2.4964355e-05 1.8232493e-05 -1.8668377e-05)
(-1.34916e-05 1.6146568e-05 -1.0923627e-05)
(-8.8908133e-06 1.2221331e-05 -5.979413e-06)
(0.0001377053 -6.3806171e-06 -0.00019150484)
(-2.1141728e-05 1.1513402e-05 -8.9069021e-05)
(-1.1640758e-05 3.3901114e-05 -4.395406e-05)
(-8.8993432e-06 2.7124717e-05 -2.1605294e-05)
(-7.2678186e-06 1.8340888e-05 -1.0604443e-05)
)
;
    }
    procBoundary9to12
    {
        type            processor;
        value           nonuniform List<vector> 
25
(
(-1.7489349e-06 1.192589e-05 3.7046632e-06)
(2.94583e-06 9.9013134e-06 3.1225899e-06)
(5.8516287e-06 7.6438709e-06 2.1283403e-06)
(7.6670695e-06 5.3512797e-06 9.9666239e-07)
(8.5945737e-06 2.5677827e-06 -6.0904492e-08)
(-1.8575438e-06 9.5398679e-06 2.1870951e-06)
(2.4126896e-06 8.0518198e-06 2.1315027e-06)
(5.0328293e-06 6.4398366e-06 1.9046231e-06)
(6.6724845e-06 4.9196913e-06 1.4011262e-06)
(7.5734043e-06 2.8681833e-06 5.8991567e-07)
(-1.5804689e-06 8.6758145e-06 -1.1961192e-08)
(2.663358e-06 7.2338474e-06 5.7219084e-07)
(5.1212522e-06 5.258676e-06 1.1972357e-06)
(6.3523621e-06 3.5963431e-06 1.4971343e-06)
(6.8244423e-06 2.0916109e-06 1.243082e-06)
(-7.604057e-07 9.3116331e-06 -2.2703007e-06)
(3.6218864e-06 7.3304523e-06 -1.0873985e-06)
(5.9577728e-06 4.4582028e-06 1.1433126e-07)
(6.7183309e-06 2.0501691e-06 9.5807268e-07)
(6.6529595e-06 6.141362e-07 1.2634196e-06)
(5.3622472e-07 1.1392251e-05 -4.06337e-06)
(5.04799e-06 8.263412e-06 -2.4777648e-06)
(7.1667234e-06 4.3441395e-06 -1.1385718e-06)
(7.5014504e-06 1.1904169e-06 -2.1336419e-07)
(7.1492213e-06 -5.0170022e-07 4.7552155e-07)
)
;
    }
    procBoundary9to18
    {
        type            processor;
        value           nonuniform List<vector> 
25
(
(0.00036731623 2.7278925e-05 -2.7741775e-05)
(0.0002134281 -5.7500711e-06 7.0731823e-05)
(0.00058779694 -1.9980548e-05 6.5126165e-05)
(0.00017056871 -3.1926621e-05 -7.1701241e-05)
(0.00037679744 -7.5774648e-05 -0.00049116205)
(9.1428819e-05 5.430693e-05 -3.8816599e-05)
(8.614637e-05 -4.7698175e-07 8.4274773e-06)
(6.2446709e-05 -3.1027192e-05 1.1375153e-05)
(3.7115665e-05 -5.1985187e-05 -3.5956926e-05)
(-2.1957681e-05 -0.00010380346 -0.00011129307)
(4.2353704e-05 4.6977874e-05 -2.72066e-05)
(4.8051404e-05 1.2505909e-05 -5.799044e-06)
(3.6990295e-05 -1.3967879e-05 -1.3794792e-06)
(2.0113198e-05 -2.7940448e-05 -1.421021e-05)
(-1.2126994e-06 -3.6627328e-05 -2.8210961e-05)
(1.8197451e-05 3.3414371e-05 -1.5966264e-05)
(2.5180558e-05 1.4056413e-05 -6.7943683e-06)
(2.1875683e-05 -1.7581038e-06 -3.4549759e-06)
(1.4436683e-05 -9.6746286e-06 -5.8495959e-06)
(7.4434714e-06 -1.0810535e-05 -7.7582672e-06)
(6.9139213e-06 2.2260317e-05 -8.7825099e-06)
(1.2878924e-05 1.2391004e-05 -4.9892427e-06)
(1.3259222e-05 3.6264441e-06 -2.9282832e-06)
(1.1060762e-05 -1.262506e-06 -2.7119866e-06)
(9.238951e-06 -2.477815e-06 -2.2783397e-06)
)
;
    }
}


// ************************************************************************* //
