/*--------------------------------*- C++ -*----------------------------------*\
| =========                 |                                                 |
| \\      /  F ield         | OpenFOAM: The Open Source CFD Toolbox           |
|  \\    /   O peration     | Version:  3.0.1                                 |
|   \\  /    A nd           | Web:      www.OpenFOAM.org                      |
|    \\/     M anipulation  |                                                 |
\*---------------------------------------------------------------------------*/
FoamFile
{
    version     2.0;
    format      ascii;
    class       volScalarField;
    location    "0.1";
    object      p;
}
// * * * * * * * * * * * * * * * * * * * * * * * * * * * * * * * * * * * * * //

dimensions      [0 2 -2 0 0 0 0];

internalField   nonuniform List<scalar> 
125
(
-0.1274099
-0.19194689
-0.070855768
0.075950528
0.016359829
-0.097600316
-0.1088205
-0.062921012
-0.0094973747
-0.011889008
-0.078152728
-0.077663885
-0.058372182
-0.036066272
-0.030216489
-0.067445842
-0.065030664
-0.055738659
-0.045124562
-0.039962585
-0.061544714
-0.059328785
-0.05429576
-0.048674803
-0.045132296
-0.10154605
-0.11552196
-0.081074116
-0.032350588
-0.01047651
-0.084650123
-0.086521467
-0.065699833
-0.039721479
-0.028533929
-0.072545826
-0.070713156
-0.059006008
-0.045056374
-0.037799113
-0.064985495
-0.062601381
-0.055814432
-0.048006538
-0.043206092
-0.060405895
-0.058365207
-0.054251064
-0.049677623
-0.046521554
-0.085665402
-0.080371898
-0.075276372
-0.099527614
-0.032694235
-0.076692674
-0.073716807
-0.064950571
-0.057186193
-0.037077144
-0.068924286
-0.065925229
-0.058361265
-0.049731242
-0.041235276
-0.063380608
-0.060690744
-0.055258956
-0.049206629
-0.044539397
-0.059683666
-0.057547581
-0.053877934
-0.049927497
-0.047008169
-0.08282544
-0.069695465
-0.067909581
-0.078317437
-0.034774821
-0.075271326
-0.067833762
-0.059476829
-0.052128935
-0.03622522
-0.06835617
-0.06314434
-0.055299013
-0.047327196
-0.039901716
-0.063199203
-0.059431782
-0.053627239
-0.047779585
-0.043517147
-0.059648365
-0.056973401
-0.053023449
-0.049092948
-0.046359016
-0.098943395
-0.068850754
-0.047412438
-0.034195972
-0.029182553
-0.082072672
-0.065708026
-0.048728532
-0.034179965
-0.026610615
-0.071743683
-0.062029011
-0.049824364
-0.039133967
-0.033767975
-0.064900702
-0.058930426
-0.050971058
-0.043910918
-0.040170199
-0.060491525
-0.05675747
-0.051762316
-0.047238912
-0.04461675
)
;

boundaryField
{
    movingWall
    {
        type            zeroGradient;
    }
    CPLReceiveMD
    {
        type            zeroGradient;
    }
    streamwiseIn
    {
        type            cyclic;
    }
    streamwiseOut
    {
        type            cyclic;
    }
    front
    {
        type            cyclic;
    }
    back
    {
        type            cyclic;
    }
    procBoundary11to2
    {
        type            processor;
        value           nonuniform List<scalar> 
25
(
-0.15891191
-0.32464793
-0.069361714
0.19558073
0.05828719
-0.10978697
-0.13628844
-0.064251419
0.017648533
0.0079175885
-0.083381718
-0.084892453
-0.058777473
-0.028136184
-0.021621383
-0.069901709
-0.06741405
-0.055763854
-0.042273834
-0.036188475
-0.062758604
-0.060251905
-0.054250657
-0.047495912
-0.043414505
)
;
    }
    procBoundary11to9throughstreamwiseOut
    {
        type            processorCyclic;
        value           nonuniform List<scalar> 
25
(
-0.024657128
-0.027306196
-0.0339666
-0.039907645
-0.044194222
-0.028106903
-0.034250144
-0.038539983
-0.042409418
-0.045472775
0.02128647
-0.026570384
-0.038360084
-0.043065447
-0.0459318
0.003094316
-0.026862226
-0.037340153
-0.042380961
-0.045533858
-0.013114618
-0.025703365
-0.034476578
-0.040349409
-0.044329006
)
;
    }
    procBoundary11to10
    {
        type            processor;
        value           nonuniform List<scalar> 
25
(
-0.089010571
-0.07682336
-0.070264889
-0.065055384
-0.061154464
-0.076884771
-0.073015543
-0.067864211
-0.063529576
-0.060256619
-0.080745717
-0.071910977
-0.066651177
-0.062770482
-0.059847002
-0.084173679
-0.073841739
-0.06784136
-0.063480935
-0.06024527
-0.095638429
-0.083607492
-0.073400734
-0.066369988
-0.06170835
)
;
    }
    procBoundary11to14
    {
        type            processor;
        value           nonuniform List<scalar> 
25
(
-0.058162094
-0.056484844
-0.053528983
-0.05030454
-0.048001574
-0.057612996
-0.05606601
-0.053481985
-0.050684569
-0.048614533
-0.057277671
-0.055694909
-0.053257695
-0.050697593
-0.048787131
-0.057276828
-0.055422044
-0.052815422
-0.05023071
-0.048404866
-0.057693406
-0.05533214
-0.052218547
-0.049332497
-0.04750572
)
;
    }
    procBoundary11to20
    {
        type            processor;
        value           nonuniform List<scalar> 
25
(
-0.11864219
-0.056873522
-0.043731276
0.025812168
0.041901208
-0.097159647
-0.064644272
-0.035761243
-0.0043167196
-0.00059698163
-0.07968583
-0.062789875
-0.042784128
-0.025840271
-0.022320015
-0.068654147
-0.05950713
-0.0478039
-0.038155929
-0.034875234
-0.062205696
-0.057034624
-0.05037559
-0.044723225
-0.042117572
)
;
    }
}


// ************************************************************************* //
