/*--------------------------------*- C++ -*----------------------------------*\
| =========                 |                                                 |
| \\      /  F ield         | OpenFOAM: The Open Source CFD Toolbox           |
|  \\    /   O peration     | Version:  3.0.1                                 |
|   \\  /    A nd           | Web:      www.OpenFOAM.org                      |
|    \\/     M anipulation  |                                                 |
\*---------------------------------------------------------------------------*/
FoamFile
{
    version     2.0;
    format      ascii;
    class       surfaceScalarField;
    location    "0.1";
    object      phi;
}
// * * * * * * * * * * * * * * * * * * * * * * * * * * * * * * * * * * * * * //

dimensions      [0 3 -1 0 0 0 0];

internalField   nonuniform List<scalar> 
300
(
0.30238404
-0.059586186
-0.05169798
0.35614852
-0.16608884
-0.15265098
0.35460019
-0.015853643
0.020406111
0.20655262
0.17070762
0.21630899
0.056467018
0.053659737
0.022449434
-0.03889727
-0.025896117
-0.091610623
-0.062312211
-0.044594968
-0.10663577
-0.009095318
0.0055518293
0.0047753743
0.053134579
0.060436167
0.036657195
0.033285344
-0.00098387819
-0.021417547
-0.011212219
-0.03856927
-0.025275335
-0.013900165
-0.044594665
-0.0052671546
0.0012658983
-0.011702539
0.018126447
0.017975994
0.019496269
0.015162455
-0.004829735
-0.01180456
-0.0049203918
-0.01857693
-0.011406847
-0.0048583516
-0.021220125
-0.0028857694
0.00015081015
-0.010321744
0.0071038787
0.0057624255
0.010342194
0.0064857499
-0.0044292124
-0.0022778037
-0.010060941
-0.0019273894
-0.011236473
-8.99404e-05
-0.0070817475
0.0020048818
0.0027778965
0.10030727
-0.033769706
-0.031742029
0.075835253
-0.057957043
-0.070239746
0.13853441
-0.030716959
-0.011570663
0.20591314
0.014736165
0.13418294
0.036079719
0.044396618
0.0037522869
-0.024207412
-0.015913429
-0.04159227
-0.031616574
-0.025610889
-0.051880825
-0.013385422
-0.0014991658
-0.022309305
0.010671204
0.034922074
0.018528379
0.01708504
-0.0036661794
-0.015122687
-0.0072418926
-0.023406212
-0.016226749
-0.0095756505
-0.027890172
-0.0063842226
-0.0012901553
-0.014511594
0.005901956
0.009347511
0.010816565
0.0068715067
-0.0047664031
-0.0091606646
-0.0032092177
-0.01356843
-0.0084739831
-0.0038210858
-0.015609807
-0.0031271393
-0.0011113467
-0.0095976836
0.0033432534
0.0023992055
0.0066326374
0.0026659592
-0.0040784893
-0.0014444562
-0.0082236465
-0.0016354575
-0.009141976
-0.00074674979
-0.0063086381
0.00049908381
0.00097276028
0.12805486
-0.01793571
-0.0056760415
0.092428718
-0.013309924
-0.021347161
0.11620957
-0.020643875
-0.014727303
0.37729618
-0.084563947
-0.042343219
0.0087631691
0.0041507967
-0.0059144512
-0.015536136
-0.0028411385
-0.017500196
-0.015583029
-0.011768021
-0.015520122
-0.013180724
-0.010947341
-0.040072657
-0.014902517
-0.010107001
0.0083171974
-0.0017034255
-0.0059959221
-0.011088784
-0.0011350674
-0.015123211
-0.010469907
-0.0055615545
-0.01725708
-0.0062058825
-0.0061241744
-0.016986062
-0.0010527985
-0.0048070426
0.0066095769
-0.0026673243
-0.0053770688
-0.0073952113
-0.00036209561
-0.010859223
-0.0062874409
-0.0025175883
-0.01210039
-0.0027628096
-0.0032633127
-0.0093307137
0.0014413809
-0.0028540551
0.0049387596
-0.0020447827
-0.0042691126
-7.0467479e-05
-0.0073350091
-0.0011484299
-0.0078964191
-0.0017092013
-0.0058349918
-0.0016694021
-0.0012986194
0.098225977
-0.015101371
0.032204324
0.08231674
-0.0037289077
-0.0017075834
0.12545055
-0.016852549
-0.04097011
0.22357082
-0.052312097
-0.088151584
0.0029018467
-0.011206346
-0.01483684
-0.013830172
0.013602744
-0.016689523
-0.009378863
-0.004253241
-0.014675319
-0.0083557047
-0.021493699
-0.031717289
-0.0096022147
-0.035896598
0.0073522273
-0.019234556
-0.010419714
-0.010315354
0.0067756579
-0.015686908
-0.0074257351
-0.0022302045
-0.015941277
-0.0033447907
-0.010948294
-0.014846192
0.00090198907
-0.016385682
0.0072315268
-0.012267854
-0.0075316284
-0.0071032835
0.003403437
-0.011605047
-0.004917856
-0.0010021417
-0.011691504
-0.0012084037
-0.0053117742
-0.0085214684
0.0026263107
-0.0077368943
0.0056847923
-0.0066938424
-0.0053467338
0.0016864965
-0.0078957235
-0.00043167761
-0.0078567066
-0.0025221419
-0.0054642322
-0.0037080289
-0.0034846205
0.078968522
-0.033710541
0.10737703
-0.0062816944
0.071159838
0.0026243073
0.10306597
-2.6263408e-05
-0.0051145286
-0.032682319
-0.020655104
-0.03391725
-0.0073567638
-0.029067898
0.0021883824
-0.015109706
0.0099052588
0.014317269
-0.019423306
-0.01368786
-0.024404259
-0.0061978253
-0.021376228
0.0022925563
-0.010730125
0.0095530873
0.012804535
-0.011936473
-0.008820292
-0.01591407
-0.0043471981
-0.014116076
0.001581854
-0.0074789777
0.0066561861
0.0088943738
-0.0074646512
-0.0099859204
-0.0090424348
-0.0052409534
)
;

boundaryField
{
    movingWall
    {
        type            calculated;
        value           nonuniform 0();
    }
    CPLReceiveMD
    {
        type            calculated;
        value           uniform 0;
    }
    streamwiseIn
    {
        type            cyclic;
        value           nonuniform 0();
    }
    streamwiseOut
    {
        type            cyclic;
        value           nonuniform 0();
    }
    front
    {
        type            cyclic;
        value           nonuniform 0();
    }
    back
    {
        type            cyclic;
        value           nonuniform 0();
    }
    procBoundary11to2
    {
        type            processor;
        value           nonuniform List<scalar> 
25
(
0.062932679
0.26499969
-0.0029598715
-0.23890995
-0.083793526
0.024363905
0.054904013
0.0026661179
-0.054262979
-0.039604844
0.010456659
0.014452846
0.0008118122
-0.015854924
-0.017186949
0.0049119272
0.0047663902
5.0897615e-05
-0.0057001258
-0.0075470057
0.0024281609
0.0018464347
-8.9906207e-05
-0.0023573286
-0.0034351541
)
;
    }
    procBoundary11to9throughstreamwiseOut
    {
        type            processorCyclic;
        value           nonuniform List<scalar> 
25
(
0.18021651
0.030850815
0.0074963177
-0.00011026094
-0.0018749512
0.1790718
0.011469267
0.0014809289
-0.0015927469
-0.0020960242
0.40881289
-0.020869601
-0.0057473755
-0.0029462368
-0.0021508426
0.23600887
-0.018636534
-0.0051202664
-0.0022706985
-0.0016483021
0.238948
-0.0017437342
0.0014174418
0.00035915562
-0.00057366654
)
;
    }
    procBoundary11to10
    {
        type            processor;
        value           nonuniform List<scalar> 
25
(
-0.25404521
-0.04159131
-0.015770492
-0.0047794241
-0.00078129074
-0.086498786
-0.023272566
-0.0093603445
-0.0029113785
-0.00029963954
-0.13625332
-0.0095945743
-0.0045458444
-0.0012207428
0.0003253468
-0.12103941
-0.0028931548
-0.0010308226
0.00056230762
0.0011923453
-0.052451209
0.0030552263
0.0033122101
0.0029369679
0.0024320086
)
;
    }
    procBoundary11to14
    {
        type            processor;
        value           nonuniform List<scalar> 
25
(
-0.0067660953
-0.0056888279
-0.0015335485
0.0032605449
0.0057396684
-0.0055862624
-0.0045989292
-0.0015382767
0.0020143179
0.0041865215
-0.0048123949
-0.0037057602
-0.0012407364
0.0015402135
0.0035582895
-0.0047436834
-0.0031031669
-0.00041633467
0.0022755473
0.0040921194
-0.0055972171
-0.0028513336
0.00091221874
0.0041874319
0.0057786937
)
;
    }
    procBoundary11to20
    {
        type            processor;
        value           nonuniform List<scalar> 
25
(
0.039405279
-0.023866413
-0.0074368438
-0.11996699
-0.14200236
0.030179617
-0.0021236793
-0.025941988
-0.059731353
-0.052014825
0.015884678
0.0015236546
-0.014079921
-0.026586567
-0.022892695
0.0075068361
0.0011541866
-0.0063334807
-0.01150902
-0.010588856
0.0034285459
0.00055485015
-0.0027729101
-0.0050309279
-0.0049981156
)
;
    }
}


// ************************************************************************* //
