/*--------------------------------*- C++ -*----------------------------------*\
| =========                 |                                                 |
| \\      /  F ield         | OpenFOAM: The Open Source CFD Toolbox           |
|  \\    /   O peration     | Version:  3.0.1                                 |
|   \\  /    A nd           | Web:      www.OpenFOAM.org                      |
|    \\/     M anipulation  |                                                 |
\*---------------------------------------------------------------------------*/
FoamFile
{
    version     2.0;
    format      ascii;
    class       volVectorField;
    location    "0.1";
    object      U;
}
// * * * * * * * * * * * * * * * * * * * * * * * * * * * * * * * * * * * * * //

dimensions      [0 1 -1 0 0 0 0];

internalField   nonuniform List<vector> 
125
(
(0.0010913991 -7.452574e-05 -0.000143333)
(-0.0001079685 -0.00020768489 -0.00052203787)
(0.002287795 -1.9821123e-05 2.9215045e-05)
(6.4472645e-05 0.00021344566 0.00056902461)
(0.00040684615 7.0625411e-05 0.00017186065)
(8.0203995e-05 -0.00012314522 -6.284269e-05)
(-8.6685959e-05 -0.00028557653 -0.00012441874)
(-0.00024756408 -3.1192718e-05 3.62029e-06)
(-0.00012750338 0.00027986883 0.00014342445)
(4.4566177e-05 0.00011644472 9.1126359e-05)
(1.8500607e-05 -7.5388296e-05 -2.7090904e-05)
(-4.9446399e-05 -0.00010947526 -3.5449346e-05)
(-0.00010398744 -1.7954912e-05 5.7088004e-07)
(-7.0382955e-05 8.9070158e-05 4.2300079e-05)
(-5.2446489e-06 7.0186168e-05 4.0443064e-05)
(-5.771073e-08 -4.1522062e-05 -1.2292024e-05)
(-2.9261189e-05 -4.5838137e-05 -1.2032702e-05)
(-4.9757418e-05 -1.0189855e-05 1.2576204e-07)
(-3.9433043e-05 3.1523534e-05 1.4331279e-05)
(-1.3037097e-05 3.7292679e-05 1.7543585e-05)
(-4.5583672e-06 -2.3210298e-05 -5.8831128e-06)
(-1.8114194e-05 -2.1364352e-05 -4.7178061e-06)
(-2.6625953e-05 -5.5233229e-06 1.5366909e-10)
(-2.2900439e-05 1.2951285e-05 5.4536944e-06)
(-1.1195315e-05 2.009965e-05 7.7672934e-06)
(0.00018945296 -4.2229925e-05 -0.00010431323)
(0.00021790218 -7.247922e-05 -0.00027865465)
(0.00024649517 -3.8406779e-05 1.1072599e-05)
(0.0005488101 1.8432636e-05 0.00043816295)
(0.00051233788 4.5111177e-05 0.00012257333)
(3.3790298e-05 -7.2491468e-05 -5.2268751e-05)
(-4.7304804e-05 -0.00011200033 -8.7758648e-05)
(-0.00011688157 -5.5140812e-05 5.0741723e-06)
(-9.2728434e-05 3.1770786e-05 0.00011922172)
(-1.3543602e-05 6.8275066e-05 6.2968785e-05)
(7.125143e-06 -4.9163818e-05 -2.3070853e-05)
(-3.3843941e-05 -5.9801089e-05 -2.9346135e-05)
(-6.4135719e-05 -2.471243e-05 -2.6931634e-08)
(-5.3011444e-05 2.0714708e-05 3.4161902e-05)
(-1.6287024e-05 3.6683429e-05 2.7545997e-05)
(-2.3162741e-06 -3.0351846e-05 -1.0163301e-05)
(-2.2920643e-05 -3.0870684e-05 -1.0849809e-05)
(-3.6479446e-05 -1.1886768e-05 -1.1995181e-06)
(-3.151369e-05 1.1555056e-05 1.0204424e-05)
(-1.3987648e-05 2.1809499e-05 1.1441334e-05)
(-4.7227278e-06 -1.8432086e-05 -4.6533866e-06)
(-1.537888e-05 -1.6338533e-05 -4.4538158e-06)
(-2.1710007e-05 -5.8306018e-06 -1.0455498e-06)
(-1.9315222e-05 6.6962653e-06 3.1306897e-06)
(-1.0505755e-05 1.3523022e-05 4.6890709e-06)
(0.00037043953 -2.2428834e-05 -4.6766596e-05)
(0.00029581724 -1.6649297e-05 -0.00011447376)
(0.00023907102 -2.5824897e-05 -3.2871396e-05)
(4.1424318e-05 -0.00010571448 0.00011480038)
(0.0021044459 1.0960062e-05 6.0681226e-05)
(4.6096209e-06 -4.1850738e-05 -2.3445777e-05)
(-2.9271255e-05 -3.612862e-05 -4.6718052e-05)
(-4.127459e-05 -4.2297824e-05 -1.555651e-05)
(-6.9642367e-05 -0.00012435108 3.101875e-05)
(-7.5935695e-05 2.1356551e-05 1.9227676e-05)
(-1.8116476e-06 -3.328284e-05 -1.0472456e-05)
(-2.640246e-05 -3.2566404e-05 -1.8920936e-05)
(-4.0479575e-05 -2.4228604e-05 -9.2669215e-06)
(-4.2810035e-05 -1.9947165e-05 5.6767958e-06)
(-2.8424021e-05 1.865871e-05 5.2557203e-06)
(-5.1948669e-06 -2.3104596e-05 -4.4648603e-06)
(-2.0297406e-05 -2.0945818e-05 -7.9235485e-06)
(-2.8703185e-05 -1.1208473e-05 -5.4680224e-06)
(-2.6792191e-05 4.9232215e-07 -5.6797508e-07)
(-1.5347686e-05 1.4435753e-05 7.7674372e-07)
(-5.7428779e-06 -1.5258858e-05 -1.8940663e-06)
(-1.4506357e-05 -1.2490461e-05 -3.4801021e-06)
(-1.9041447e-05 -5.0032374e-06 -3.069925e-06)
(-1.7165818e-05 3.728424e-06 -1.4627265e-06)
(-9.9825517e-06 1.0621353e-05 -4.0721055e-07)
(0.00035948051 -1.8885484e-05 3.3153635e-05)
(0.00018936295 -4.6665843e-06 -2.880288e-05)
(0.00022434117 -2.1076017e-05 -6.9617893e-05)
(0.00023783994 -6.5406551e-05 -0.00016311264)
(0.0010288137 3.6271757e-06 -8.8209706e-06)
(-1.4918409e-05 -3.6174074e-05 1.345025e-05)
(-3.9426088e-05 -1.6390531e-05 -2.0020967e-05)
(-3.9207734e-05 -3.152027e-05 -4.0553327e-05)
(-5.8045194e-05 -7.7410228e-05 -5.7514165e-05)
(-6.2856427e-05 1.2819303e-05 -2.616603e-05)
(-1.1738887e-05 -3.0182898e-05 7.0492546e-06)
(-3.263841e-05 -2.1006579e-05 -9.7392584e-06)
(-3.9538003e-05 -1.4623941e-05 -2.1341198e-05)
(-3.8488827e-05 -1.0872025e-05 -2.6492505e-05)
(-2.4964355e-05 1.8232493e-05 -1.8668377e-05)
(-1.0118342e-05 -2.1773456e-05 3.8012152e-06)
(-2.3923805e-05 -1.542985e-05 -4.3999591e-06)
(-2.9123873e-05 -5.689771e-06 -1.0719298e-05)
(-2.5268924e-05 4.4155337e-06 -1.3239218e-05)
(-1.34916e-05 1.6146568e-05 -1.0923627e-05)
(-8.1742597e-06 -1.4808427e-05 2.0198515e-06)
(-1.6554739e-05 -1.0026012e-05 -1.9754682e-06)
(-1.9692632e-05 -2.0302844e-06 -5.2895989e-06)
(-1.6652508e-05 6.1284649e-06 -6.7221828e-06)
(-8.8908133e-06 1.2221331e-05 -5.979413e-06)
(-9.8295518e-06 -4.2148228e-05 8.949246e-05)
(0.00050961834 -7.8532708e-06 -3.2054083e-05)
(2.6187499e-05 3.2739341e-06 -6.0497607e-05)
(0.00032956477 -3.5072266e-08 -0.00026011442)
(0.0001377053 -6.3806171e-06 -0.00019150484)
(-4.473153e-05 -6.7971511e-05 5.4720572e-05)
(-8.319584e-05 -1.7050816e-05 -7.9734641e-06)
(-7.8787382e-05 6.0132813e-06 -5.9287703e-05)
(-5.5198409e-05 1.2350119e-05 -0.00011952889)
(-2.1141728e-05 1.1513402e-05 -8.9069021e-05)
(-2.8425376e-05 -4.2931877e-05 2.8324305e-05)
(-5.4792893e-05 -1.6945394e-05 -8.8596889e-07)
(-5.7232827e-05 5.6054304e-06 -3.1286411e-05)
(-4.01372e-05 2.4327792e-05 -5.3716701e-05)
(-1.1640758e-05 3.3901114e-05 -4.395406e-05)
(-1.8594108e-05 -2.8133999e-05 1.3637944e-05)
(-3.4817919e-05 -1.3182028e-05 1.891831e-07)
(-3.7542444e-05 4.8431256e-06 -1.4557775e-05)
(-2.699652e-05 2.0262644e-05 -2.4059081e-05)
(-8.8993432e-06 2.7124717e-05 -2.1605294e-05)
(-1.2371823e-05 -1.8021246e-05 6.3940284e-06)
(-2.1815808e-05 -8.9983032e-06 1.5366328e-07)
(-2.3788162e-05 3.1170894e-06 -6.619523e-06)
(-1.7855632e-05 1.3553854e-05 -1.0924712e-05)
(-7.2678186e-06 1.8340888e-05 -1.0604443e-05)
)
;

boundaryField
{
    movingWall
    {
        type            fixedValue;
        value           nonuniform 0();
    }
    CPLReceiveMD
    {
        type            fixedValue;
        value           nonuniform List<vector> 
25
(
(1.6712812 0 0)
(0.1854162 0 0)
(0.74345683 0 0)
(0.79219387 0 0)
(0.11373142 0 0)
(0.064613158 0 0)
(0.5386333 0 0)
(0.64411718 0 0)
(0.45328781 0 0)
(1.2786288 0 0)
(5.919334 0 0)
(0.90811632 0 0)
(0.38281133 0 0)
(0.4060256 0 0)
(0.22522749 0 0)
(0.56382212 0 0)
(1.4521347 0 0)
(0.29436821 0 0)
(0.64139808 0 0)
(0.75057538 0 0)
(0.31092727 0 0)
(1.0459103 0 0)
(4.8194591 0 0)
(2.4669158 0 0)
(0.38001316 0 0)
)
;
    }
    streamwiseIn
    {
        type            cyclic;
    }
    streamwiseOut
    {
        type            cyclic;
    }
    front
    {
        type            cyclic;
    }
    back
    {
        type            cyclic;
    }
    procBoundary11to2
    {
        type            processor;
        value           nonuniform List<vector> 
25
(
(0.00085315255 -0.00012279103 -1.2266746e-05)
(0.00016411521 -0.00047036013 -2.5826759e-05)
(0.0075369939 -1.2797836e-05 -0.00011757287)
(-0.00028327801 0.00044431785 -8.328719e-06)
(0.001135174 0.00012592987 0.00018807593)
(0.00015421654 -0.00018880503 -2.5799039e-05)
(-0.00011373761 -0.00059885022 -4.1066183e-05)
(-0.00038263253 -2.6482255e-05 -3.2262316e-05)
(-0.000180406 0.00055877999 3.4140499e-05)
(8.4740519e-05 0.0001997777 8.2986986e-05)
(3.2187163e-05 -9.9714493e-05 -1.8518365e-05)
(-6.1505718e-05 -0.00017218716 -2.0414202e-05)
(-0.00014188462 -2.1217901e-05 -7.2210254e-06)
(-9.2883671e-05 0.00014980791 2.0843031e-05)
(-1.2617402e-06 0.00011026621 3.6887171e-05)
(1.661709e-06 -5.1559637e-05 -1.063746e-05)
(-3.5338429e-05 -6.1602224e-05 -8.9251568e-06)
(-6.2843427e-05 -1.1316041e-05 -1.0290953e-06)
(-4.8931513e-05 4.8401441e-05 1.051199e-05)
(-1.4064135e-05 5.448527e-05 1.6863354e-05)
(-5.0050588e-06 -2.7797455e-05 -5.6881726e-06)
(-2.1262147e-05 -2.6299246e-05 -3.9203353e-06)
(-3.1881508e-05 -5.6753815e-06 1.9409737e-07)
(-2.7082362e-05 1.8776937e-05 5.1712333e-06)
(-1.2353289e-05 2.7517774e-05 8.016923e-06)
)
;
    }
    procBoundary11to9throughstreamwiseOut
    {
        type            processorCyclic;
        value           nonuniform List<vector> 
25
(
(0.00052377842 6.6309709e-06 4.3288853e-05)
(7.75955e-05 2.3282795e-05 4.516437e-05)
(2.4937335e-05 3.1505827e-05 2.7274801e-05)
(5.7780599e-06 2.5572878e-05 1.4407765e-05)
(-2.71662e-07 1.7912933e-05 7.3012289e-06)
(0.0004937741 1.5335166e-05 -0.00011464487)
(6.9805359e-05 2.6061039e-05 -1.8419313e-06)
(1.6664926e-05 2.0401411e-05 1.098239e-05)
(2.6312115e-06 1.7336358e-05 7.8938358e-06)
(-1.1305645e-06 1.3264554e-05 4.3434525e-06)
(0.00021981636 0.0001194925 -7.7925524e-05)
(1.7861115e-05 0.00014896817 -1.8471094e-05)
(5.4522792e-06 4.1241601e-05 -3.0005794e-06)
(5.7359195e-07 1.8933941e-05 -7.1926681e-08)
(-1.1514241e-06 1.2206192e-05 1.5221505e-07)
(0.00031782126 7.4829312e-05 8.5815051e-05)
(5.6244517e-06 0.00010102534 -2.167155e-06)
(5.3684804e-06 3.8800583e-05 -9.7091039e-06)
(2.3988083e-06 2.0489152e-05 -6.7908757e-06)
(2.6440078e-07 1.3324519e-05 -4.0074498e-06)
(0.0011293535 3.1467146e-05 2.6360817e-05)
(2.0746737e-05 5.3400986e-05 -2.1176459e-05)
(1.6805558e-05 3.6617875e-05 -2.0344268e-05)
(8.4007595e-06 2.4635595e-05 -1.2999168e-05)
(3.1013973e-06 1.6726767e-05 -7.4190494e-06)
)
;
    }
    procBoundary11to10
    {
        type            processor;
        value           nonuniform List<vector> 
25
(
(0.00028645355 -3.0427711e-05 3.0566225e-05)
(0.00010303553 -4.6824757e-05 -4.0202229e-06)
(4.1107479e-05 -2.9421818e-05 -1.0387333e-05)
(1.5511798e-05 -2.2779214e-05 -8.0547191e-06)
(5.3052453e-06 -1.6648247e-05 -5.000137e-06)
(0.00021274363 -9.6819935e-06 -2.0624986e-05)
(6.178987e-05 -2.2561325e-05 -1.227979e-05)
(2.8391716e-05 -2.3717809e-05 -9.033909e-06)
(1.17935e-05 -1.9022819e-05 -5.7126527e-06)
(4.2289562e-06 -1.4084901e-05 -3.2693051e-06)
(0.00032015556 -2.2073185e-05 1.8185392e-05)
(4.0497722e-05 -3.52239e-05 2.0661708e-06)
(2.0786642e-05 -2.285468e-05 -5.688738e-08)
(8.9997357e-06 -1.7014611e-05 -1.2148099e-07)
(3.113456e-06 -1.270792e-05 -2.8570245e-08)
(0.0002916269 -2.5810846e-05 3.7229788e-05)
(3.7649401e-05 -4.0812957e-05 2.9241762e-05)
(1.7618145e-05 -2.5905462e-05 1.687445e-05)
(6.8642959e-06 -1.8994502e-05 8.9992822e-06)
(1.8561984e-06 -1.3908196e-05 4.653477e-06)
(0.0002585316 -3.0080375e-05 0.00016551843)
(3.7722603e-05 -5.5597967e-05 8.9576351e-05)
(1.4812636e-05 -4.3097162e-05 4.3016832e-05)
(4.4850403e-06 -2.9235584e-05 2.0384786e-05)
(2.9539635e-07 -1.9302686e-05 9.7433333e-06)
)
;
    }
    procBoundary11to14
    {
        type            processor;
        value           nonuniform List<vector> 
25
(
(-4.7738158e-06 -1.3468131e-05 -2.9266553e-06)
(-1.1574214e-05 -1.0909042e-05 -2.071989e-06)
(-1.5441782e-05 -2.8939828e-06 -2.9458273e-08)
(-1.381007e-05 6.2762898e-06 2.250607e-06)
(-8.0754489e-06 1.1403696e-05 3.5488333e-06)
(-4.5699059e-06 -1.13174e-05 -2.2118612e-06)
(-1.0319159e-05 -9.0001352e-06 -1.9759179e-06)
(-1.3444648e-05 -2.8753588e-06 -6.794326e-07)
(-1.2160066e-05 4.1497852e-06 9.815636e-07)
(-7.4193594e-06 8.6315317e-06 1.9630368e-06)
(-4.9774082e-06 -9.9143004e-06 -8.4120156e-07)
(-1.0041785e-05 -7.4081277e-06 -1.6110278e-06)
(-1.24843e-05 -2.273016e-06 -1.6677051e-06)
(-1.11676e-05 3.4396885e-06 -1.1357755e-06)
(-6.8699175e-06 7.5520185e-06 -5.2494731e-07)
(-6.2361571e-06 -9.8051009e-06 1.0388276e-06)
(-1.1145662e-05 -6.3004872e-06 -9.0780154e-07)
(-1.2969396e-05 -7.0222369e-07 -2.5989708e-06)
(-1.1017308e-05 4.8884517e-06 -3.4137879e-06)
(-6.2955451e-06 8.6190696e-06 -3.2040922e-06)
(-8.2897253e-06 -1.1396883e-05 3.053226e-06)
(-1.3679583e-05 -5.8678298e-06 1.1349279e-07)
(-1.4990286e-05 1.7288759e-06 -3.0365156e-06)
(-1.1772722e-05 8.4133815e-06 -5.0879388e-06)
(-5.7264303e-06 1.1803445e-05 -5.2709551e-06)
)
;
    }
    procBoundary11to20
    {
        type            processor;
        value           nonuniform List<vector> 
25
(
(-6.3233852e-05 -5.3702154e-05 0.00021112102)
(-4.2125142e-05 1.9430489e-05 -0.00021600434)
(2.642305e-05 -1.9836069e-05 -0.00021450965)
(0.0013567228 7.5308233e-05 -0.00045491836)
(0.00010058163 0.00010615751 -0.00027302635)
(-0.0001125239 -9.7386796e-05 0.00011544927)
(-0.0001534547 1.4793824e-05 9.6711209e-06)
(-0.00015075557 -2.2792112e-06 -9.6088293e-05)
(-8.7514557e-05 0.00012911699 -0.00019705167)
(3.5192702e-05 0.00016046519 -0.00013190419)
(-5.5641702e-05 -7.1265531e-05 5.2459317e-05)
(-9.224913e-05 -1.284393e-05 1.5106458e-05)
(-9.2368733e-05 3.010599e-05 -3.789187e-05)
(-5.1156399e-05 8.4597801e-05 -7.6969962e-05)
(8.4080019e-06 8.5696232e-05 -6.0369394e-05)
(-3.0313945e-05 -4.3703732e-05 2.2752127e-05)
(-5.2119524e-05 -1.4390218e-05 7.2272566e-06)
(-5.3372137e-05 1.8977117e-05 -1.4921581e-05)
(-3.2316443e-05 4.7207523e-05 -3.0347606e-05)
(-2.4316867e-06 4.9496186e-05 -2.7270792e-05)
(-1.776393e-05 -2.5393145e-05 9.91288e-06)
(-2.956829e-05 -1.0101702e-05 3.0562142e-06)
(-3.0771007e-05 9.490975e-06 -6.0795559e-06)
(-2.0637428e-05 2.5099607e-05 -1.2490311e-05)
(-5.3851509e-06 2.855567e-05 -1.2525566e-05)
)
;
    }
}


// ************************************************************************* //
