/*--------------------------------*- C++ -*----------------------------------*\
| =========                 |                                                 |
| \\      /  F ield         | OpenFOAM: The Open Source CFD Toolbox           |
|  \\    /   O peration     | Version:  3.0.1                                 |
|   \\  /    A nd           | Web:      www.OpenFOAM.org                      |
|    \\/     M anipulation  |                                                 |
\*---------------------------------------------------------------------------*/
FoamFile
{
    version     2.0;
    format      ascii;
    class       volScalarField;
    location    "0.2";
    object      p;
}
// * * * * * * * * * * * * * * * * * * * * * * * * * * * * * * * * * * * * * //

dimensions      [0 2 -2 0 0 0 0];

internalField   nonuniform List<scalar> 
125
(
0.0025634941
-0.013376459
-0.020655774
0.0022299792
0.033414979
0.00077704261
-0.010200654
-0.010649911
0.0084349688
0.039625874
0.0049789095
-0.0010134533
0.002683622
0.018548698
0.041636746
0.01210577
0.0097099985
0.013928695
0.025811644
0.041689776
0.019097791
0.018518562
0.022219574
0.030474395
0.04123342
0.017890234
-0.0061104525
-0.003443205
0.031084686
0.034614206
0.01395969
0.0073005962
0.0082320989
0.020217199
0.031750816
0.015800241
0.013010267
0.015178884
0.023707458
0.035115827
0.01965002
0.018603553
0.021329729
0.028325
0.037733782
0.023931411
0.023774002
0.026405326
0.031863876
0.039033279
0.032129426
0.041349788
0.027051814
0.014757993
-0.0073455764
0.023611255
0.025020063
0.020625117
0.019375262
0.015952995
0.022518741
0.022487654
0.022187752
0.024610914
0.028644134
0.024316955
0.024177681
0.025530995
0.029316512
0.034822222
0.027029724
0.027129564
0.028990588
0.032618958
0.037598165
0.052273421
0.076644391
0.035459846
0.031552545
-0.065179446
0.031140376
0.033917031
0.023884994
0.020614971
0.0037302492
0.025763019
0.026849793
0.024699526
0.025324939
0.025760958
0.02638402
0.026887496
0.02740745
0.029946888
0.033955458
0.028433
0.028768565
0.030257246
0.033113455
0.037239858
0.037234529
0.071343359
0.015060453
0.016647901
-0.00034201781
0.027193332
0.029666634
0.016862127
0.019247688
0.01998322
0.024552352
0.027632959
0.023069619
0.025728452
0.030684946
0.025874536
0.026989349
0.027135943
0.030412419
0.035793053
0.028230766
0.028782368
0.030290421
0.03345001
0.038058402
)
;

boundaryField
{
    movingWall
    {
        type            zeroGradient;
    }
    CPLReceiveMD
    {
        type            zeroGradient;
    }
    streamwiseIn
    {
        type            cyclic;
    }
    streamwiseOut
    {
        type            cyclic;
    }
    front
    {
        type            cyclic;
    }
    back
    {
        type            cyclic;
    }
    procBoundary10to1
    {
        type            processor;
        value           nonuniform List<scalar> 
25
(
-0.033969911
-0.089284111
-0.070060905
-0.014408573
0.05560652
-0.023263879
-0.049295274
-0.049892742
-0.012976112
0.054460297
-0.011496995
-0.025370407
-0.020455055
0.0088684032
0.051649498
0.001688491
-0.003618586
0.0017963495
0.020809943
0.047116911
0.012829797
0.011325356
0.016078344
0.028060613
0.044113338
)
;
    }
    procBoundary10to9
    {
        type            processor;
        value           nonuniform List<scalar> 
25
(
0.042073383
0.015071097
0.013624779
0.017552021
0.022403324
0.021409246
0.018512724
0.020392789
0.023052408
0.026223627
0.019370856
0.02124057
0.023980363
0.026151318
0.028564883
0.017698149
0.024159272
0.025101834
0.027141499
0.02946893
-0.022185851
0.018834804
0.021421187
0.025905488
0.029066818
)
;
    }
    procBoundary10to11
    {
        type            processor;
        value           nonuniform List<scalar> 
25
(
0.071613795
0.071531546
0.063500615
0.056513819
0.051226153
0.034982607
0.043664881
0.047016074
0.047332625
0.046157056
-0.01442989
0.019293382
0.035835175
0.041703584
0.043112769
-0.10383919
0.0044435044
0.032300625
0.04021985
0.042238172
-0.022764314
0.026066209
0.03935673
0.042902552
0.043361669
)
;
    }
    procBoundary10to13
    {
        type            processor;
        value           nonuniform List<scalar> 
25
(
0.024844095
0.024996894
0.027951774
0.033594749
0.040719887
0.027810584
0.028027816
0.030247478
0.034332825
0.039513491
0.029790567
0.030067709
0.0317649
0.034816511
0.03876621
0.030718355
0.031085758
0.032551861
0.035148794
0.038585696
0.030632625
0.031098851
0.032624025
0.035363099
0.038978187
)
;
    }
    procBoundary10to19
    {
        type            processor;
        value           nonuniform List<scalar> 
25
(
0.036312491
0.00016949656
-0.044821707
-0.0083597175
0.065461736
0.020460303
0.0091983963
0.00025764142
0.016212929
0.039813648
0.019969934
0.017535599
0.016821058
0.025292919
0.037677338
0.023158391
0.022684022
0.024465278
0.030358998
0.038824931
0.026556567
0.026821216
0.028921248
0.033451996
0.039561266
)
;
    }
}


// ************************************************************************* //
