/*--------------------------------*- C++ -*----------------------------------*\
| =========                 |                                                 |
| \\      /  F ield         | OpenFOAM: The Open Source CFD Toolbox           |
|  \\    /   O peration     | Version:  3.0.1                                 |
|   \\  /    A nd           | Web:      www.OpenFOAM.org                      |
|    \\/     M anipulation  |                                                 |
\*---------------------------------------------------------------------------*/
FoamFile
{
    version     2.0;
    format      ascii;
    class       surfaceScalarField;
    location    "0.2";
    object      phi;
}
// * * * * * * * * * * * * * * * * * * * * * * * * * * * * * * * * * * * * * //

dimensions      [0 3 -1 0 0 0 0];

internalField   nonuniform List<scalar> 
300
(
0.26173999
-0.0030197077
-0.065736337
0.17968864
-0.034178902
-0.079739687
0.13305366
-0.017809611
-0.049350403
0.14530774
0.024198045
-0.0082622606
-0.033473613
-0.00034934904
0.036732737
-0.011882329
-0.042016194
-0.0023775947
-0.030950712
-0.057626654
-0.032914103
-0.026224401
-0.046278867
-0.024660022
-0.0063943252
-0.016190649
-0.017472873
0.010643103
0.020594543
-0.01540446
-0.027820742
-0.0029202985
-0.025686557
-0.036613309
-0.025637287
-0.023868203
-0.030031484
-0.029735077
-0.013243091
-0.011344626
-0.010525086
0.0084209641
0.010840849
-0.014324168
-0.017430902
-0.0037842213
-0.019412002
-0.021185912
-0.018360099
-0.018763316
-0.017566124
-0.024337423
-0.012832507
-0.006965557
-0.0068899078
0.0048912613
0.0057042083
-0.010557669
-0.0033015214
-0.011935502
-0.012571802
-0.0098368897
-0.018139326
-0.004187687
0.0026163323
0.20418547
0.02160587
-0.029135582
0.30360485
-0.026648481
-0.15253931
0.36541019
-0.01877651
-0.092374252
0.27659729
0.031665386
0.04882535
-0.0018178776
0.083338374
0.02424577
0.0034422592
-0.022065584
0.004733063
-0.0093878131
-0.055366098
-0.012976803
-0.010165185
-0.037218198
0.0022967871
-0.0036763261
0.0037942598
-0.016927221
0.029393569
0.012191936
-0.0045413148
-0.014589562
0.0017347292
-0.009662811
-0.025917118
-0.0081434784
-0.011353798
-0.019003553
-0.0097999841
-0.010754364
-0.0025805962
-0.013902493
0.010670038
0.0071487456
-0.0072092145
-0.0097536192
-0.00019771725
-0.0099928603
-0.013522461
-0.0077824898
-0.010959877
-0.010364595
-0.012439794
-0.010147477
-0.0028405501
-0.009146301
0.0043873249
0.0043433705
-0.0062682968
-0.0011945745
-0.0074770315
-0.006929045
-0.0059117398
-0.011322703
-0.0020184339
0.0020825412
0.26313201
0.024687791
-0.019792052
0.21521018
0.063875774
-0.16850014
0.13028361
0.034581137
-0.042078962
0.22169671
-0.011196758
-0.031433768
-0.062030607
0.12494614
-0.0037827819
0.0092755309
-0.0079165273
0.020520968
0.021160653
-0.037020216
0.026038851
0.0084851392
-0.016690261
0.029275601
-0.011463373
0.00091210655
-0.036013992
0.029781196
0.002792354
0.00017271944
-0.003642012
0.008394185
0.0030070002
-0.01342191
0.0077934577
-0.0025405004
-0.0073498228
0.0037743402
-0.011043035
0.0011148154
-0.020126816
0.0085522758
0.0034768495
-0.0037300919
-0.0027945428
0.0029082256
-0.0038102957
-0.0061227458
-0.00040015247
-0.0060325534
-0.0034738057
-0.0051583559
-0.0092683868
0.00021149212
-0.011402852
0.0032442778
0.003130424
-0.0020864277
0.0003491654
-0.003046035
-0.0030794686
-0.0020195507
-0.0072066902
-3.5789786e-05
0.0015344498
0.7815565
0.036584661
0.037313495
0.57710288
0.14056362
-0.10467002
0.43992988
0.057691592
0.037371018
0.33041063
0.029647293
0.048493506
-0.15569458
-0.093025842
-0.032614001
0.010145618
0.012872775
0.034816341
0.043568835
-0.0074904906
0.039595431
0.017713303
0.018552794
0.060260245
-0.0068655114
0.016795142
-0.056202816
-0.012029097
-0.0067645513
0.00069307842
0.0055330774
0.01356512
0.010827756
-0.0009703122
0.015120108
0.0015193281
0.0073394115
0.011856354
-0.01072999
0.008273514
-0.025126278
0.0013442425
0.001126937
-0.0031241275
0.0027850266
0.0051570956
-0.00044998005
0.0011682993
0.0033787004
-0.0039202958
0.0037723164
-0.0021304039
-0.0093918571
0.0043772816
-0.013046152
0.002106468
0.0021704332
0.0014120866
0.001340416
0.0012671859
-0.0011294823
0.0020834585
-0.0056560252
0.0022602616
0.0012888777
1.1825701
0.017007949
0.47653254
0.30184695
0.28332109
0.048248833
0.2209883
-0.0019194462
-0.062676891
-0.065034483
0.0044511473
0.057745852
0.093028811
0.045312424
0.013686211
0.031084557
-0.01477249
-0.041795457
-0.016097188
-0.0021536187
0.023264415
0.020961124
0.016777956
-0.00021758537
0.0047477066
-0.01468605
-0.024294206
-0.0002379142
-0.0045414562
0.0077563351
0.00085093347
0.0039168129
-0.0052762413
-0.004499228
-0.011531334
-0.01387393
0.0020161995
0.0021359172
-0.00098598575
-0.0066723762
)
;

boundaryField
{
    movingWall
    {
        type            calculated;
        value           nonuniform 0();
    }
    CPLReceiveMD
    {
        type            calculated;
        value           uniform 0;
    }
    streamwiseIn
    {
        type            cyclic;
        value           nonuniform 0();
    }
    streamwiseOut
    {
        type            cyclic;
        value           nonuniform 0();
    }
    front
    {
        type            cyclic;
        value           nonuniform 0();
    }
    back
    {
        type            cyclic;
        value           nonuniform 0();
    }
    procBoundary10to1
    {
        type            processor;
        value           nonuniform List<scalar> 
25
(
0.10022169
0.19581861
0.11396223
-0.028075435
-0.082131015
0.062373675
0.093508258
0.085331636
0.038555824
-0.02863747
0.038815787
0.054877661
0.050483695
0.022285868
-0.016220005
0.023230843
0.029451671
0.026955372
0.012477003
-0.0074595012
0.013543463
0.01577624
0.013932498
0.0066792904
-0.0035574109
)
;
    }
    procBoundary10to9
    {
        type            processor;
        value           nonuniform List<scalar> 
25
(
-0.2930448
-0.048154363
-0.028155371
-0.017739122
-0.011429645
-0.26230058
-0.025975652
-0.01745806
-0.01217473
-0.0086307609
-0.29718114
0.0050346168
-0.0046580365
-0.0065984814
-0.0062155525
-0.87530517
0.038236219
0.0070087178
-0.0028891555
-0.0045511188
-1.155551
0.078758471
0.018731761
-0.00081123036
-0.0041597047
)
;
    }
    procBoundary10to11
    {
        type            processor;
        value           nonuniform List<scalar> 
25
(
0.26127712
-0.02272606
-0.028891142
-0.025461837
-0.019712095
0.19471696
-0.0012611938
-0.014982721
-0.016638454
-0.01434361
0.24224747
0.0029355104
-0.0099587696
-0.012712854
-0.011475587
0.70409146
0.0025520798
-0.012028106
-0.01310267
-0.011190531
0.19525823
-0.014301468
-0.020548984
-0.017148287
-0.013035429
)
;
    }
    procBoundary10to13
    {
        type            processor;
        value           nonuniform List<scalar> 
25
(
-0.011600832
-0.014215256
-0.013708196
-0.0098369737
-0.0044915176
-0.0072408927
-0.0088983109
-0.0091972442
-0.0079660571
-0.0056839023
-0.0048843533
-0.0054610417
-0.0065252206
-0.0071511731
-0.0066568217
-0.0042595942
-0.003953272
-0.0055427001
-0.007186121
-0.0073504832
-0.004938834
-0.0042322722
-0.0065576931
-0.0083235705
-0.0079718452
)
;
    }
    procBoundary10to19
    {
        type            processor;
        value           nonuniform List<scalar> 
25
(
-0.0067676669
0.29951471
0.18241853
0.11278751
-0.004424305
0.011814983
0.078578043
0.065599674
0.043879682
0.012559515
0.0095955788
0.031768227
0.027631376
0.02016978
0.0092403604
0.0062546041
0.013218897
0.012570325
0.0095601277
0.0044035922
0.0040469737
0.0061299994
0.0063011509
0.0045968652
0.0018322844
)
;
    }
}


// ************************************************************************* //
