/*--------------------------------*- C++ -*----------------------------------*\
| =========                 |                                                 |
| \\      /  F ield         | OpenFOAM: The Open Source CFD Toolbox           |
|  \\    /   O peration     | Version:  3.0.1                                 |
|   \\  /    A nd           | Web:      www.OpenFOAM.org                      |
|    \\/     M anipulation  |                                                 |
\*---------------------------------------------------------------------------*/
FoamFile
{
    version     2.0;
    format      ascii;
    class       volVectorField;
    location    "0.2";
    object      U;
}
// * * * * * * * * * * * * * * * * * * * * * * * * * * * * * * * * * * * * * //

dimensions      [0 1 -1 0 0 0 0];

internalField   nonuniform List<vector> 
125
(
(0.00086790097 -5.252038e-06 -0.00021458538)
(0.00037035504 -4.9997534e-05 -0.00045956571)
(0.00056051251 -2.149808e-05 -0.00019861972)
(0.00028012817 4.1356734e-05 0.00011269913)
(0.00028309202 -4.5893153e-05 8.3063848e-05)
(0.0001087721 -2.0023143e-05 -0.00013287157)
(3.7842565e-05 -8.725724e-05 -0.00020307501)
(-6.4816579e-05 -5.4379295e-05 -0.00016441559)
(-8.1211472e-05 2.9372272e-05 -5.0950737e-05)
(-5.4629985e-05 -6.7314674e-05 5.2758997e-05)
(6.1149409e-05 -3.3804503e-05 -8.4135279e-05)
(1.9602266e-05 -6.8646199e-05 -0.00011577087)
(-3.9861868e-05 -6.2775409e-05 -0.00010064725)
(-6.9879734e-05 -3.1311715e-05 -3.8928526e-05)
(-7.1264056e-05 -3.4575916e-05 3.0946514e-05)
(3.5749646e-05 -3.6768234e-05 -5.1093173e-05)
(8.7416722e-06 -5.5549168e-05 -6.349516e-05)
(-2.7803292e-05 -5.336621e-05 -5.5674478e-05)
(-5.3141079e-05 -3.552927e-05 -2.4252583e-05)
(-6.1237588e-05 -2.1765691e-05 1.5404858e-05)
(2.1424358e-05 -3.2227639e-05 -3.0217116e-05)
(3.0042465e-06 -4.1928816e-05 -3.4689695e-05)
(-1.9842085e-05 -4.06126e-05 -2.973066e-05)
(-3.8279257e-05 -2.8508784e-05 -1.3593525e-05)
(-4.6567416e-05 -1.4220023e-05 7.701454e-06)
(0.00054814054 3.0202247e-05 -0.00011663665)
(0.00032794596 -3.4722467e-05 -0.00027812159)
(0.0012147238 -2.2845248e-05 -0.0001740487)
(0.00081373097 4.2755837e-05 3.916327e-05)
(0.00045361194 -2.5608285e-06 8.1273202e-05)
(6.2673364e-05 3.4129499e-05 -7.972106e-05)
(3.3905681e-05 -4.582628e-05 -0.0001412175)
(-1.331312e-05 -3.5500782e-05 -0.00010456471)
(-1.3126866e-05 3.7145266e-05 -1.7023823e-05)
(3.2678978e-06 -2.3852157e-05 4.69085e-05)
(3.7074454e-05 -1.8521952e-06 -5.3308193e-05)
(1.7222614e-05 -2.3179955e-05 -7.8251456e-05)
(-8.2095636e-06 -2.6980636e-05 -6.1396822e-05)
(-2.2030914e-05 -1.9456116e-05 -1.7903779e-05)
(-2.9872207e-05 -3.867212e-05 2.3451519e-05)
(2.415759e-05 -1.4846078e-05 -3.4098143e-05)
(8.6766778e-06 -2.4645552e-05 -4.3456018e-05)
(-9.9792979e-06 -2.8131331e-05 -3.4988239e-05)
(-2.5087086e-05 -2.657582e-05 -1.2412396e-05)
(-3.5718315e-05 -2.8811976e-05 1.145885e-05)
(1.6220193e-05 -1.8149481e-05 -2.1077552e-05)
(3.9373254e-06 -2.3731713e-05 -2.4304795e-05)
(-1.0139947e-05 -2.5322513e-05 -1.9731769e-05)
(-2.2711643e-05 -2.269361e-05 -7.8229017e-06)
(-3.1496766e-05 -1.8532383e-05 5.8200631e-06)
(0.0008000501 3.1743678e-05 -4.6491589e-05)
(0.00068402839 8.7117204e-05 -0.00033650638)
(0.00029230809 4.8100955e-05 -0.00017012066)
(0.00034123386 -1.4885273e-05 3.0267231e-06)
(0.00068919685 -8.0289735e-05 0.00026732553)
(-1.7456579e-05 4.3385648e-05 -3.4127244e-05)
(1.3153821e-05 0.00011282336 -0.00011386776)
(5.9095986e-05 5.8387093e-05 -6.7844586e-05)
(7.020327e-05 -2.7749757e-05 -2.6128778e-07)
(4.0850872e-05 -0.00012516779 7.2123377e-05)
(6.6900917e-06 1.1818441e-05 -2.2252685e-05)
(1.1513694e-05 2.911536e-05 -4.9170125e-05)
(2.0485713e-05 6.8010946e-06 -3.3367535e-05)
(1.4968597e-05 -2.6700322e-05 -3.7381682e-06)
(-7.2648565e-06 -7.0025576e-05 2.33353e-05)
(1.2422427e-05 -4.5375923e-06 -1.556332e-05)
(7.8515753e-06 -1.602505e-06 -2.4575965e-05)
(3.2403305e-06 -1.1701157e-05 -1.7757576e-05)
(-6.6939906e-06 -2.5448395e-05 -3.5878013e-06)
(-2.1959793e-05 -3.9397151e-05 9.3274245e-06)
(1.1671816e-05 -1.0868e-05 -1.0411583e-05)
(4.3500291e-06 -1.2198551e-05 -1.3166454e-05)
(-3.3601926e-06 -1.6460529e-05 -9.9700634e-06)
(-1.2727426e-05 -2.0558316e-05 -2.6448178e-06)
(-2.3112984e-05 -2.2567845e-05 4.4558863e-06)
(0.0035541629 4.2570994e-05 1.9619955e-05)
(0.00055897295 0.00018814985 -0.00043504347)
(0.0019332535 7.9551307e-05 -3.170064e-05)
(0.00055881702 3.9462967e-05 1.5724462e-06)
(0.00065760045 -0.00019790751 1.9735636e-05)
(-0.00010008906 5.8373162e-05 7.8539367e-06)
(3.3221268e-07 0.00024174321 -7.8002628e-05)
(0.00010042253 0.00010137269 -7.3334379e-06)
(0.00012662921 3.0375408e-05 1.6525854e-05)
(7.8149982e-05 -0.00026798679 1.9171129e-05)
(-2.2183428e-05 1.6711715e-05 2.9493041e-06)
(6.1078143e-06 6.6111877e-05 -2.2669379e-05)
(3.7222436e-05 2.3106399e-05 -1.4640495e-06)
(3.4671862e-05 -2.278264e-05 1.0232965e-05)
(1.8781826e-07 -0.00010146811 1.1776317e-05)
(2.2587959e-06 -3.0049769e-06 1.8056168e-07)
(6.4824213e-06 1.1358117e-05 -6.3924843e-06)
(1.1008866e-05 -4.7338612e-06 -5.2908218e-08)
(1.9979137e-06 -2.5482472e-05 5.5779494e-06)
(-1.8809417e-05 -4.7691392e-05 6.5747558e-06)
(8.3160237e-06 -9.2820605e-06 -7.8645911e-07)
(4.3788445e-06 -6.6725468e-06 -2.224613e-06)
(3.8168913e-07 -1.31276e-05 5.6177557e-08)
(-8.2856936e-06 -2.0778083e-05 2.7610525e-06)
(-2.094704e-05 -2.5485491e-05 3.5039209e-06)
(0.0063817452 1.9946148e-05 4.3913484e-05)
(0.00035746748 0.00044455494 0.00021682851)
(0.0012768724 7.2513558e-05 0.00025332802)
(0.00044677257 6.220899e-08 0.00020121217)
(0.00061102758 -8.0884652e-05 -0.00016066562)
(-0.0002095235 2.6690462e-05 3.3355115e-05)
(-2.195977e-06 0.00052559589 8.2139821e-05)
(0.00015380556 8.8668839e-05 9.8347219e-05)
(9.670905e-05 -1.9094606e-05 7.5752602e-05)
(2.0793661e-05 -0.0001331569 -6.3006201e-07)
(-5.172321e-05 4.1450333e-06 1.9569288e-05)
(7.1002721e-06 0.00010072568 3.6044358e-05)
(5.3388117e-05 1.4081658e-05 4.3312983e-05)
(2.8208965e-05 -3.7648228e-05 3.5785121e-05)
(-1.9248563e-05 -8.2621954e-05 1.3223826e-05)
(-3.5306387e-06 -8.2733587e-06 1.146111e-05)
(7.6181052e-06 1.8842258e-05 1.8114463e-05)
(1.5210765e-05 -1.018093e-05 2.0596231e-05)
(-6.6326254e-08 -3.2920308e-05 1.7546779e-05)
(-2.6731084e-05 -4.7669545e-05 8.2096782e-06)
(7.5417513e-06 -1.187327e-05 6.8812498e-06)
(5.1926659e-06 -6.8919098e-06 9.3077369e-06)
(1.625473e-06 -1.6427369e-05 1.0532935e-05)
(-9.2796831e-06 -2.4834343e-05 8.6187365e-06)
(-2.4474942e-05 -2.7267564e-05 3.9395316e-06)
)
;

boundaryField
{
    movingWall
    {
        type            fixedValue;
        value           nonuniform 0();
    }
    CPLReceiveMD
    {
        type            fixedValue;
        value           nonuniform List<vector> 
25
(
(0.45479605 0 0)
(0.62552685 0 0)
(0.61160387 0 0)
(6.8554934 0 0)
(0.65749245 0 0)
(0.22542005 0 0)
(0.160093 0 0)
(0.47089973 0 0)
(0.4290359 0 0)
(0.68233524 0 0)
(0.30039724 0 0)
(2.1038 0 0)
(0.20681608 0 0)
(2.5883526 0 0)
(0.95054386 0 0)
(0.31621342 0 0)
(1.2398598 0 0)
(0.006162295 0 0)
(0.16613986 0 0)
(0.21364969 0 0)
(0.34010791 0 0)
(0.5016685 0 0)
(0.59348555 0 0)
(0.055053564 0 0)
(0.50873354 0 0)
)
;
    }
    streamwiseIn
    {
        type            cyclic;
    }
    streamwiseOut
    {
        type            cyclic;
    }
    front
    {
        type            cyclic;
    }
    back
    {
        type            cyclic;
    }
    procBoundary10to1
    {
        type            processor;
        value           nonuniform List<vector> 
25
(
(0.00084579334 -5.1661642e-05 -0.00025240173)
(0.00091056211 -0.00029157031 -0.00017619026)
(0.0039714774 -5.7167503e-05 -0.00054846189)
(0.00021397478 0.00020657605 -0.0004770473)
(0.00022996309 2.7799955e-05 0.00029868975)
(0.00018850666 -9.6471214e-05 -0.00015558965)
(6.5612503e-05 -0.00038997748 -0.00021391807)
(-0.00016354148 -0.00013358886 -0.00031900407)
(-0.00023035586 0.00018894365 -0.00023228978)
(-0.00016306994 2.8321743e-05 0.00011022501)
(9.9185723e-05 -8.3630655e-05 -9.8118716e-05)
(3.3734624e-05 -0.00016275995 -0.00013486593)
(-8.5051191e-05 -0.00013572178 -0.00016574968)
(-0.00015362472 -4.6154148e-05 -0.00010546418)
(-0.00014652098 -1.3179379e-06 4.9324401e-05)
(5.2356333e-05 -6.8764245e-05 -5.8997824e-05)
(1.3257982e-05 -0.00010572673 -7.6411568e-05)
(-4.9221875e-05 -9.9047926e-05 -8.0868891e-05)
(-9.6166424e-05 -5.1910813e-05 -4.7057127e-05)
(-0.00010477693 -5.5669076e-06 2.0940708e-05)
(2.8504698e-05 -5.1673431e-05 -3.4288886e-05)
(3.4508693e-06 -6.8277192e-05 -4.1104655e-05)
(-3.1236116e-05 -6.5314202e-05 -3.9112327e-05)
(-6.0143755e-05 -3.9780876e-05 -2.0938893e-05)
(-6.9688274e-05 -7.0910383e-06 9.5784718e-06)
)
;
    }
    procBoundary10to9
    {
        type            processor;
        value           nonuniform List<vector> 
25
(
(0.000429051 6.9658562e-05 -0.00010302823)
(9.4619117e-05 7.9758229e-05 -7.7223253e-05)
(6.6379426e-05 4.1134433e-06 -5.3659596e-05)
(4.6023554e-05 -1.5824207e-05 -3.5296417e-05)
(3.1824313e-05 -1.9313139e-05 -2.2405191e-05)
(0.00096429412 4.9600576e-05 2.7343103e-05)
(8.4407526e-05 6.3972626e-05 -1.4889519e-05)
(5.0103543e-05 1.5213151e-05 -2.3792103e-05)
(3.4113231e-05 -3.7913278e-06 -2.0128799e-05)
(2.4860262e-05 -1.0463636e-05 -1.4552253e-05)
(0.00061247837 2.7426843e-05 0.0001715567)
(5.9326427e-06 2.862423e-05 4.9873539e-05)
(2.0014433e-05 -1.1258124e-06 1.008803e-05)
(2.1859817e-05 -6.5843559e-06 -2.6771713e-06)
(1.9303388e-05 -8.8235101e-06 -5.262285e-06)
(0.00098370512 -7.22474e-05 0.00058917626)
(-3.0675366e-05 -9.7661457e-05 0.00011735675)
(4.4149049e-06 -3.733761e-05 3.5745156e-05)
(1.5329146e-05 -1.9141644e-05 9.5605817e-06)
(1.6380826e-05 -1.2306608e-05 1.9054518e-06)
(0.00037089362 -0.00044492723 7.6077664e-06)
(-3.7337583e-05 -0.00052534103 8.4264417e-06)
(2.1075147e-06 -0.00010892214 8.7092945e-06)
(1.4996237e-05 -4.0424065e-05 6.7202181e-06)
(1.661459e-05 -1.8412928e-05 4.6945814e-06)
)
;
    }
    procBoundary10to11
    {
        type            processor;
        value           nonuniform List<vector> 
25
(
(0.001234361 -7.4320474e-05 9.7206167e-05)
(-2.0807469e-05 -0.00010286997 0.00011531167)
(-6.0205322e-05 -3.7850719e-05 7.7720208e-05)
(-5.9248075e-05 -1.0832605e-05 4.4806037e-05)
(-4.6385029e-05 -4.339952e-07 2.4597984e-05)
(0.00047614522 -6.3921556e-05 0.00011074613)
(-1.8290798e-05 -0.00010256288 7.832161e-05)
(-4.6109203e-05 -5.8333119e-05 4.6095371e-05)
(-4.5505934e-05 -2.8200343e-05 2.6865401e-05)
(-3.6719613e-05 -1.1627926e-05 1.5631531e-05)
(0.00061894145 -0.00010674812 0.00029984531)
(-2.9610959e-05 -0.00016752445 7.4611482e-05)
(-4.5534647e-05 -8.9306926e-05 2.6321846e-05)
(-4.0756927e-05 -4.1296453e-05 1.3321098e-05)
(-3.225224e-05 -1.8244011e-05 7.9049083e-06)
(0.0025124008 -0.00028928214 5.3811011e-05)
(-0.000126216 -0.0003762135 -3.4767781e-06)
(-6.7754622e-05 -0.00011962352 -1.7507246e-06)
(-4.5781307e-05 -4.6617284e-05 8.0665734e-07)
(-3.2987589e-05 -2.0100827e-05 1.3990938e-06)
(5.4828514e-05 -0.00016407983 -0.00036570161)
(-0.00013698168 -0.00022313019 -7.6431996e-05)
(-8.4577015e-05 -8.5023495e-05 -1.896549e-05)
(-5.5519813e-05 -3.8146632e-05 -6.4027922e-06)
(-3.7764294e-05 -1.7936294e-05 -3.1206422e-06)
)
;
    }
    procBoundary10to13
    {
        type            processor;
        value           nonuniform List<vector> 
25
(
(1.3133969e-05 -2.5394232e-05 -1.7569223e-05)
(3.5671028e-07 -3.0413286e-05 -1.8949682e-05)
(-1.438326e-05 -2.9061638e-05 -1.5682788e-05)
(-2.6748504e-05 -2.0904574e-05 -7.1653159e-06)
(-3.3162803e-05 -9.2420877e-06 3.9635162e-06)
(1.0889512e-05 -1.6721236e-05 -1.2738504e-05)
(1.5036453e-06 -2.0112784e-05 -1.3725752e-05)
(-8.9411954e-06 -2.0372308e-05 -1.0836167e-05)
(-1.8296957e-05 -1.7205374e-05 -4.4619275e-06)
(-2.4652633e-05 -1.1493043e-05 3.1110287e-06)
(9.0473862e-06 -1.186658e-05 -6.6958986e-06)
(2.2590461e-06 -1.3802044e-05 -7.5167979e-06)
(-5.119436e-06 -1.5255406e-05 -5.5626621e-06)
(-1.2801308e-05 -1.5509066e-05 -1.6722734e-06)
(-1.9645488e-05 -1.3303596e-05 2.3743165e-06)
(7.8928568e-06 -1.0474374e-05 -8.2470812e-07)
(2.6368817e-06 -1.1209522e-05 -1.0858425e-06)
(-3.096671e-06 -1.3500761e-05 -1.9748405e-08)
(-1.0359979e-05 -1.5542923e-05 1.3019226e-06)
(-1.8132163e-05 -1.4655522e-05 1.8750368e-06)
(7.9903793e-06 -1.1741159e-05 4.2090237e-06)
(3.0640059e-06 -1.2177619e-05 5.2825997e-06)
(-2.731671e-06 -1.5381491e-05 5.4802471e-06)
(-1.0906523e-05 -1.7698679e-05 4.2309253e-06)
(-1.9833037e-05 -1.5908552e-05 1.6116798e-06)
)
;
    }
    procBoundary10to19
    {
        type            processor;
        value           nonuniform List<vector> 
25
(
(0.00062129043 3.198874e-05 4.0827704e-05)
(0.0013065859 5.3339866e-05 0.00070464357)
(0.00075777623 -7.5581865e-05 0.0003374933)
(0.0026148559 -8.6147562e-05 0.00020698074)
(0.0014648312 -3.7872758e-05 0.0007051285)
(-2.7182593e-05 3.4003837e-05 3.6314126e-05)
(6.5537645e-05 6.0837158e-05 0.00019186034)
(9.368004e-05 -0.00010879498 0.00015277219)
(2.8304214e-05 -0.00013520246 0.00011294941)
(-7.3727765e-05 -9.4099322e-05 0.00014382916)
(5.1514124e-06 -5.1822643e-06 2.5863316e-05)
(2.9851582e-05 2.086746e-06 7.9778676e-05)
(3.6963115e-05 -5.4644557e-05 7.2887224e-05)
(4.5828906e-06 -8.0988478e-05 5.5439083e-05)
(-5.4562709e-05 -9.2628398e-05 4.3323834e-05)
(1.3653039e-05 -1.5693013e-05 1.8442273e-05)
(1.5617544e-05 -1.5378487e-05 3.6258963e-05)
(1.0441185e-05 -3.75139e-05 3.5801786e-05)
(-1.0388637e-05 -5.2648852e-05 2.6555482e-05)
(-4.2758984e-05 -5.6975679e-05 1.377492e-05)
(1.2929179e-05 -1.6534146e-05 1.2620293e-05)
(8.0305297e-06 -1.9504408e-05 1.8566437e-05)
(-3.0731055e-07 -2.8243583e-05 1.8416946e-05)
(-1.4879096e-05 -3.4093936e-05 1.2771063e-05)
(-3.2686417e-05 -3.2083488e-05 4.3445169e-06)
)
;
    }
}


// ************************************************************************* //
