/*--------------------------------*- C++ -*----------------------------------*\
| =========                 |                                                 |
| \\      /  F ield         | OpenFOAM: The Open Source CFD Toolbox           |
|  \\    /   O peration     | Version:  3.0.1                                 |
|   \\  /    A nd           | Web:      www.OpenFOAM.org                      |
|    \\/     M anipulation  |                                                 |
\*---------------------------------------------------------------------------*/
FoamFile
{
    version     2.0;
    format      ascii;
    class       surfaceScalarField;
    location    "0.2";
    object      phi;
}
// * * * * * * * * * * * * * * * * * * * * * * * * * * * * * * * * * * * * * //

dimensions      [0 3 -1 0 0 0 0];

internalField   nonuniform List<scalar> 
300
(
0.47654395
-0.02489645
-0.0055163329
0.84131866
-0.16417055
-0.088209576
2.8784619
-0.73160774
-0.73495072
2.9501403
-0.019139105
0.0048848423
0.67869898
0.68853891
0.16422751
-0.0063308892
-0.0062767204
0.15337675
-0.081526573
-0.031878324
-0.1739671
-0.17603877
-0.12849193
-0.14246027
-0.02060477
-0.0074016994
0.12159064
0.12711674
0.08842147
0.0072917587
-0.0055157581
0.059448865
-0.030001638
-0.011613976
-0.018653636
-0.053799406
-0.025967509
-0.0056524709
-0.020565233
0.0011161379
0.0068833884
0.031687989
0.051165153
0.01150721
-0.0031962267
0.036973025
-0.0087161077
-0.0043851596
0.01453926
-0.020125824
-0.0059281213
0.017026547
-0.016421898
0.0016892819
-0.015441986
0.010736847
0.031067214
-0.0016690276
0.025729512
-0.0017107431
0.018192213
-0.0013729162
0.017482131
0.0012750986
0.0044377236
0.70060593
-0.051757119
-0.043675534
0.51941907
-0.1093803
0.20237553
0.10052762
-0.12824661
-0.18788429
0.52663444
-0.045117793
-0.3760108
0.12697164
0.11165662
0.13737868
-0.0086159287
-0.02376367
0.057846036
-0.060634136
-0.0010793062
-0.05602983
-0.068737185
-0.074047173
-0.01063284
-0.027587739
-0.070301814
0.02784262
0.031204378
0.082359446
0.0095370079
-0.010875262
0.045316767
-0.022698849
-0.012573176
0.0083678864
-0.03255182
-0.025266963
0.023994506
-0.02243195
-0.019688822
-0.013986381
0.0054847798
0.05004233
0.012999633
-0.0035780407
0.03549079
-0.0060150463
-0.0066743035
0.022160044
-0.015466625
-0.0096166551
0.025770895
-0.017195694
-0.0069775433
-0.021764479
-0.0010169666
0.03113629
-0.0010709127
0.02609022
-0.0028195124
0.020846152
-0.0038670131
0.020614396
-0.0031071655
-0.0018076266
0.72030701
-0.0097588308
-0.051190578
1.5636843
-0.31963106
-0.32146285
1.4654754
-0.034426574
-0.055235758
0.56257205
0.27839277
0.2484528
0.059950626
0.1548231
0.16895651
0.013151161
-0.013823691
-0.010766407
-0.072710445
-0.06832489
-0.055280419
-0.029458078
-0.034612635
0.087771215
0.03876155
0.026082201
0.0022301612
0.021875827
0.082789838
0.018517732
-0.0020178634
0.033031556
-0.01678335
-0.018782652
0.013379189
-0.01711096
-0.017885969
0.046554368
-0.0073758944
-0.0064469586
-0.020836266
-0.0052721729
0.047662905
0.016393568
0.00089482129
0.032733595
-0.0020442113
-0.0064654365
0.024794632
-0.0097110702
-0.008948372
0.031593638
-0.013137373
-0.0080988094
-0.022951721
-0.009013258
0.029435583
0.0013508292
0.025092178
-0.0024216471
0.021604714
-0.0045607541
0.021907089
-0.0054664995
-0.0067927832
0.41380545
0.01087557
0.0050982188
0.15049508
-0.0574594
-0.00073983882
0.11466885
-0.0076398255
-0.011814346
0.35063804
0.039614032
-0.027265895
-0.10466039
-0.1364561
0.10948604
0.020330895
0.0033143627
0.022808282
-0.023140735
-0.015963999
0.0076783889
-0.011172038
-0.015956196
0.082992199
0.0062656236
-0.015706641
-0.042996005
-0.044696774
0.065386306
0.020726297
0.0049702246
0.034042972
-0.0045250006
-0.0060817734
0.025029722
-0.0082511489
-0.011744625
0.048158558
-0.0082954833
-0.015058493
-0.027348754
-0.026753272
0.040257778
0.016744827
0.0043329771
0.030278822
0.0019766422
-0.0027655666
0.025792779
-0.0053281478
-0.0073686154
0.030643519
-0.010489975
-0.010930097
-0.021300921
-0.01644093
0.025666058
0.0032518257
0.022965672
-0.0011426047
0.020703523
-0.0043597231
0.020592467
-0.0069500457
-0.010118043
0.42807318
0.011046109
0.5046859
-0.075854152
0.46424253
-0.013383652
0.43041807
0.048711383
0.017971646
0.09023264
0.021433708
0.03110225
-0.024760965
0.010418251
-0.0061339914
0.049803463
0.012070976
-0.0066596572
0.054219105
0.020006046
0.028582812
-0.0019625125
0.021539035
-0.0038606702
0.035780975
-0.0027579714
-0.014108118
0.033141379
0.015600175
0.025654916
0.0035534834
0.022126918
-0.0023157189
0.025062063
-0.0063813846
-0.014157174
0.021272737
0.019752436
0.018038549
0.017455966
)
;

boundaryField
{
    movingWall
    {
        type            calculated;
        value           nonuniform 0();
    }
    CPLReceiveMD
    {
        type            calculated;
        value           uniform 0;
    }
    streamwiseIn
    {
        type            cyclic;
        value           nonuniform 0();
    }
    streamwiseOut
    {
        type            cyclic;
        value           nonuniform 0();
    }
    front
    {
        type            cyclic;
        value           nonuniform 0();
    }
    back
    {
        type            cyclic;
        value           nonuniform 0();
    }
    procBoundary0to1
    {
        type            processor;
        value           nonuniform List<scalar> 
25
(
1.0749412
0.23695487
0.090118961
0.042058196
0.021788491
0.97656265
0.18453243
0.091927282
0.045405646
0.023602761
0.45953975
0.15465506
0.080605952
0.041673525
0.022295528
0.74649887
0.087781378
0.053950667
0.032084015
0.018572706
0.38946815
0.071164971
0.041853909
0.024813779
0.014879162
)
;
    }
    procBoundary0to2throughstreamwiseIn
    {
        type            processorCyclic;
        value           nonuniform List<scalar> 
25
(
-0.43041272
-0.16927944
-0.095611106
-0.053360861
-0.030050545
-0.61064459
-0.16296835
-0.095139255
-0.053102064
-0.030501009
-0.70303592
-0.201799
-0.097031136
-0.050094043
-0.028246688
-0.48100541
-0.13609899
-0.072827674
-0.039935265
-0.023355287
-0.44344002
-0.10671642
-0.055755073
-0.030160435
-0.018025664
)
;
    }
    procBoundary0to3
    {
        type            processor;
        value           nonuniform List<scalar> 
25
(
0.01075533
-0.00096164904
-0.008842958
-0.012077356
-0.016209056
0.011770546
0.00011882113
-0.007705354
-0.012560952
-0.018565967
0.012894862
0.0019120743
-0.0054964878
-0.011042102
-0.018179097
0.012712834
0.0034159963
-0.003306708
-0.0088858462
-0.015810006
0.011559548
0.0041235154
-0.0014353451
-0.0061218347
-0.011620279
)
;
    }
    procBoundary0to9
    {
        type            processor;
        value           nonuniform List<scalar> 
25
(
0.0095466134
-0.0015161126
0.041955346
-0.042166218
-0.11360937
0.0094157249
-0.0079395819
-0.0025701104
-0.018368906
-0.041380937
0.007902829
-0.0032098654
-0.006866847
-0.014425946
-0.025439495
0.0058204558
-0.00073862774
-0.0053381974
-0.01018517
-0.016188543
0.0039054533
-0.00020146673
-0.0035204111
-0.0066744228
-0.010081924
)
;
    }
    procBoundary0to18throughfront
    {
        type            processorCyclic;
        value           nonuniform List<scalar> 
25
(
-0.015728315
-0.0070664353
-0.00077919882
0.0011221337
0.0013064813
-0.11230942
-0.039956448
-0.010934085
-0.0026532001
-0.00073774543
-0.57068288
-0.099846086
-0.018020119
-0.0052423309
-0.0023074323
-0.057540983
-0.022601927
-0.014024165
-0.0084390865
-0.0049565502
0.50804914
0.050677624
-0.012709658
-0.013446789
-0.0082089195
)
;
    }
}


// ************************************************************************* //
