/*--------------------------------*- C++ -*----------------------------------*\
| =========                 |                                                 |
| \\      /  F ield         | OpenFOAM: The Open Source CFD Toolbox           |
|  \\    /   O peration     | Version:  3.0.1                                 |
|   \\  /    A nd           | Web:      www.OpenFOAM.org                      |
|    \\/     M anipulation  |                                                 |
\*---------------------------------------------------------------------------*/
FoamFile
{
    version     2.0;
    format      ascii;
    class       volScalarField;
    location    "0.1";
    object      p;
}
// * * * * * * * * * * * * * * * * * * * * * * * * * * * * * * * * * * * * * //

dimensions      [0 2 -2 0 0 0 0];

internalField   nonuniform List<scalar> 
125
(
-0.053687759
-0.055561371
-0.057613862
-0.059299297
-0.059801462
-0.053455926
-0.054833852
-0.056137366
-0.05705635
-0.057200073
-0.053253442
-0.054223336
-0.055058786
-0.055581686
-0.055594798
-0.053094684
-0.053759945
-0.054301925
-0.054610327
-0.054581847
-0.052978312
-0.05343312
-0.053789348
-0.0539753
-0.05393686
-0.053756877
-0.056056651
-0.058494629
-0.060451145
-0.061044601
-0.053527121
-0.055110785
-0.056595399
-0.057632702
-0.057793559
-0.053305219
-0.054378432
-0.055301303
-0.05587803
-0.055890042
-0.053123496
-0.05384623
-0.054435177
-0.054768494
-0.054734383
-0.052991164
-0.053479119
-0.053860238
-0.054058372
-0.054016813
-0.053650943
-0.056288286
-0.059022921
-0.061188887
-0.061893194
-0.053511447
-0.055259239
-0.05689391
-0.058041389
-0.058240532
-0.053306967
-0.054468239
-0.055471886
-0.056103324
-0.056127391
-0.05312601
-0.053899648
-0.054531818
-0.054891691
-0.054861015
-0.052992299
-0.053509042
-0.053913185
-0.054125331
-0.054084279
-0.053482539
-0.056278705
-0.059125089
-0.061358259
-0.062131125
-0.053442808
-0.055280524
-0.056991323
-0.058192764
-0.058432643
-0.053272997
-0.054489466
-0.055542907
-0.056207757
-0.056251134
-0.053106342
-0.053914579
-0.054576642
-0.054955816
-0.054933648
-0.052980412
-0.053517886
-0.05394025
-0.054164187
-0.054126164
-0.053408659
-0.05616205
-0.058938471
-0.061111217
-0.061913549
-0.053381316
-0.055219353
-0.056925751
-0.058123697
-0.058398555
-0.053227759
-0.054458257
-0.055522978
-0.056195817
-0.056262028
-0.053073915
-0.053897973
-0.054570906
-0.054958589
-0.054949187
-0.052958909
-0.053507077
-0.053939984
-0.054171453
-0.054137626
)
;

boundaryField
{
    movingWall
    {
        type            zeroGradient;
    }
    CPLReceiveMD
    {
        type            zeroGradient;
    }
    streamwiseIn
    {
        type            cyclic;
    }
    streamwiseOut
    {
        type            cyclic;
    }
    front
    {
        type            cyclic;
    }
    back
    {
        type            cyclic;
    }
    procBoundary22to4throughback
    {
        type            processorCyclic;
        value           nonuniform List<scalar> 
25
(
-0.053419469
-0.053342739
-0.053190629
-0.053047005
-0.05293467
-0.056017304
-0.055117666
-0.054393975
-0.053858704
-0.053479889
-0.058604003
-0.056753157
-0.055432373
-0.054522599
-0.053910838
-0.060656604
-0.057913261
-0.056097663
-0.054911864
-0.054144829
-0.061497496
-0.058221303
-0.056185977
-0.054917215
-0.054120358
)
;
    }
    procBoundary22to13
    {
        type            processor;
        value           nonuniform List<scalar> 
25
(
-0.053451185
-0.054959959
-0.056663896
-0.058126326
-0.058650209
-0.053308687
-0.054509782
-0.055645302
-0.056467422
-0.056638851
-0.053167611
-0.054045112
-0.054800286
-0.055280463
-0.055314519
-0.053052316
-0.053663431
-0.054164451
-0.054453447
-0.054440209
-0.052953529
-0.053379496
-0.053711297
-0.053888249
-0.053860546
)
;
    }
    procBoundary22to19
    {
        type            processor;
        value           nonuniform List<scalar> 
25
(
-0.053886295
-0.056189945
-0.059459365
-0.062692825
-0.064142295
-0.05382987
-0.05714397
-0.061234939
-0.065059493
-0.066797791
-0.053397798
-0.057465425
-0.062149773
-0.066362167
-0.068412117
-0.052959945
-0.057332798
-0.062170997
-0.066398127
-0.068525371
-0.052975023
-0.057131626
-0.061695552
-0.0656766
-0.067750746
)
;
    }
    procBoundary22to21
    {
        type            processor;
        value           nonuniform List<scalar> 
25
(
-0.052039543
-0.052134779
-0.052274933
-0.052403835
-0.052491944
-0.051780563
-0.052037519
-0.052230092
-0.052371665
-0.052470855
-0.051412674
-0.051877365
-0.052151004
-0.052324867
-0.052439893
-0.051119808
-0.051733539
-0.052070478
-0.05227528
-0.052406358
-0.051039374
-0.051654794
-0.052012261
-0.052235101
-0.05237805
)
;
    }
    procBoundary22to23
    {
        type            processor;
        value           nonuniform List<scalar> 
25
(
-0.058497994
-0.056311303
-0.054992555
-0.054176958
-0.05366216
-0.059477923
-0.056768288
-0.055213393
-0.054286521
-0.053718312
-0.06030372
-0.057160408
-0.055409267
-0.054388238
-0.053769882
-0.060640603
-0.057375512
-0.05553557
-0.054458619
-0.053807051
-0.060615556
-0.057425932
-0.055583177
-0.054490309
-0.053824678
)
;
    }
    procBoundary22to25
    {
        type            processor;
        value           nonuniform List<scalar> 
25
(
-0.052896745
-0.053208166
-0.053441076
-0.05355507
-0.053521441
-0.05290072
-0.053232022
-0.053481151
-0.053601768
-0.053564903
-0.052896043
-0.053246465
-0.053510098
-0.053639182
-0.053601077
-0.052884465
-0.053248837
-0.053524897
-0.053662355
-0.053625067
-0.052869931
-0.053241151
-0.053525347
-0.05366809
-0.053632974
)
;
    }
}


// ************************************************************************* //
