/*--------------------------------*- C++ -*----------------------------------*\
| =========                 |                                                 |
| \\      /  F ield         | OpenFOAM: The Open Source CFD Toolbox           |
|  \\    /   O peration     | Version:  3.0.1                                 |
|   \\  /    A nd           | Web:      www.OpenFOAM.org                      |
|    \\/     M anipulation  |                                                 |
\*---------------------------------------------------------------------------*/
FoamFile
{
    version     2.0;
    format      ascii;
    class       surfaceScalarField;
    location    "0.1";
    object      phi;
}
// * * * * * * * * * * * * * * * * * * * * * * * * * * * * * * * * * * * * * //

dimensions      [0 3 -1 0 0 0 0];

internalField   nonuniform List<scalar> 
300
(
0.0037438975
-0.00046341394
0.00013850269
0.0041024014
-0.0014543593
0.00099097184
0.0033694547
-0.0029522807
0.0017619863
0.001004303
-0.0044854894
0.0023040445
-0.0052027648
0.0024865066
0.0027528347
-0.00040454137
0.00014255617
0.0026048566
-0.0012199909
0.00055415851
0.0018368795
-0.0021558951
0.00091641947
0.00028756644
-0.0029481483
0.0011529977
-0.0032095564
0.0011871645
0.0019373759
-0.00031709568
0.00010365088
0.0016691587
-0.00092577605
0.00031033502
0.0010449444
-0.0015124172
0.00048519926
2.637756e-05
-0.0019413645
0.00059281459
-0.0020246341
0.00059053984
0.0013287188
-0.00023242356
5.767409e-05
0.0010826432
-0.00065284541
0.00017261111
0.00061616854
-0.0010240549
0.00026653097
-5.680334e-05
-0.0012688497
0.0003163342
-0.0012888126
0.00030503494
0.00090831183
2.5728863e-05
0.0007114972
9.1990758e-05
0.00037145414
0.0001417507
-7.6733608e-05
0.00016609727
0.00015983835
0.0045964508
-0.00045927919
-0.00021165401
0.0048735409
-0.0018913207
0.00046361645
0.0039115816
-0.0037981288
0.0010569556
0.0011866999
-0.0056369172
0.0014758104
-0.0065025858
0.0016974046
0.0031644997
-0.00044342122
-3.1188722e-05
0.0029671556
-0.0014639115
0.00029711768
0.0020734725
-0.0025872859
0.00059723043
0.00032170867
-0.0035085522
0.00081750875
-0.003806445
0.00089402065
0.0021440978
-0.00036308555
3.5901819e-06
0.0018440447
-0.0010635783
0.00017970013
0.0011525658
-0.0017312068
0.00034122434
2.4093019e-05
-0.0022179844
0.00045059918
-0.0023102837
0.00047467678
0.0014436747
-0.00026437914
5.0841505e-06
0.0011765738
-0.0007335099
0.00010685258
0.00066597423
-0.001148904
0.00019326657
-6.8106267e-05
-0.0014191658
0.00024635052
-0.0014340863
0.00025320199
0.00097458148
2.2974975e-06
0.00076126148
5.9832434e-05
0.00039580143
0.00010585282
-8.299346e-05
0.00013385642
0.00013486185
0.0052716663
-0.00027867708
-0.00033667059
0.0054669146
-0.0020577816
-1.9138075e-05
0.0043304751
-0.0042579003
0.00020436879
0.0014083339
-0.0062953176
0.00033884678
-0.0073061905
0.00047596469
0.0034928101
-0.00040858559
-0.00013719972
0.0032672792
-0.0015813367
4.2500295e-05
0.0022937697
-0.0028433443
0.00019468209
0.00039822581
-0.0038755546
0.00030260793
-0.0042259097
0.00038409709
0.002320214
-0.00036157863
-6.7881698e-05
0.0020055737
-0.0011364454
4.2393312e-05
0.0012619462
-0.001879209
0.00014189544
4.8173882e-05
-0.0024222919
0.00020870056
-0.0025318288
0.00024734283
0.0015454475
-0.00026716247
-3.9291117e-05
0.0012629901
-0.00078054324
2.9821892e-05
0.00071905978
-0.0012363442
8.9544931e-05
-6.1252476e-05
-0.0015316937
0.00012812439
-0.0015524637
0.0001451546
0.0010321188
-2.3740856e-05
0.00080728286
1.7666077e-05
0.0004238053
5.4062722e-05
-8.1986662e-05
7.7621678e-05
8.3689835e-05
0.0055891195
-7.9020564e-05
-0.00014777628
0.0056904124
-0.0019960146
-0.00023343438
0.0044649636
-0.0042674812
-0.00037334716
0.0015454773
-0.006331416
-0.00049409315
-0.00739789
-0.00043513109
0.0036724889
-0.00033918768
-0.00012294493
0.0034194436
-0.0015813897
-0.00012248264
0.0024016867
-0.0028960891
-0.00013137404
0.00047972304
-0.0039694219
-0.00013831462
-0.0043626189
-6.830721e-05
0.0024304788
-0.00033296184
-9.0422829e-05
0.0021050678
-0.0011489921
-6.2505495e-05
0.001328748
-0.0019315374
-4.0033725e-05
8.6822707e-05
-0.0025028505
-2.4048431e-05
-0.0026340039
2.166127e-05
0.0016145565
-0.0002516009
-6.4798187e-05
0.0013227101
-0.0007926863
-3.325178e-05
0.00075763845
-0.0012718137
-1.1574002e-05
-4.421802e-05
-0.0015821867
5.4357006e-06
-0.0016139237
3.0994405e-05
0.0010735246
-4.2961286e-05
0.00084367879
-2.1626305e-05
0.00044736433
-5.8527519e-07
-7.5916339e-05
1.4462589e-05
2.2870657e-05
0.0055033635
-5.4244093e-05
0.0055504034
-0.0018850481
0.0043442022
-0.0040254251
0.001604458
-0.0059754663
-0.0070307833
0.0036728841
-0.00030666194
0.0034105177
-0.0015213548
0.002394741
-0.002804663
0.00054975613
-0.003855033
-0.0042725194
0.0024583585
-0.00030730968
0.0021275189
-0.0011196737
0.0013447283
-0.0019029986
0.00013254615
-0.0024732879
-0.0026245963
0.0016460837
-0.00022974887
0.0013443769
-0.00078102466
0.00077464543
-0.0012607783
-1.8652003e-05
-0.0015731132
-0.0016220065
0.0010948509
0.00086471453
0.00046241088
-6.7504749e-05
)
;

boundaryField
{
    movingWall
    {
        type            calculated;
        value           nonuniform 0();
    }
    CPLReceiveMD
    {
        type            calculated;
        value           nonuniform 0();
    }
    streamwiseIn
    {
        type            cyclic;
        value           nonuniform 0();
    }
    streamwiseOut
    {
        type            cyclic;
        value           nonuniform 0();
    }
    front
    {
        type            cyclic;
        value           nonuniform 0();
    }
    back
    {
        type            cyclic;
        value           nonuniform 0();
    }
    procBoundary22to4throughback
    {
        type            processorCyclic;
        value           nonuniform List<scalar> 
25
(
2.1701224e-05
-7.7015439e-05
-7.4173265e-05
-5.376422e-05
-4.8420332e-05
-0.00028935392
-0.00020325511
-0.00012848957
-7.8485654e-05
-5.4326317e-05
-0.00066873913
-0.00034506654
-0.00018113702
-9.6565511e-05
-5.8249848e-05
-0.00090900199
-0.00042071636
-0.00019621881
-9.3398379e-05
-5.3206744e-05
-0.00083195645
-0.00035433346
-0.00015198086
-6.3876801e-05
-3.4490624e-05
)
;
    }
    procBoundary22to13
    {
        type            processor;
        value           nonuniform List<scalar> 
25
(
-0.0004733268
-0.0012029329
-0.0019000246
-0.0023460103
-0.0023026391
-0.00029455709
-0.00064825842
-0.0009842514
-0.0011779437
-0.0011224869
-0.00017172588
-0.00035650907
-0.00051704872
-0.00060244971
-0.00056050278
-8.4782274e-05
-0.00019303372
-0.00027492824
-0.00031370639
-0.0002831885
-4.957115e-05
-0.00010721691
-0.00015603687
-0.00017401389
-0.00015253368
)
;
    }
    procBoundary22to19
    {
        type            processor;
        value           nonuniform List<scalar> 
25
(
0.00039723127
0.0012572064
0.0036913852
0.0067880991
0.0086833189
0.00014620974
0.0021749587
0.0054812902
0.0092181515
0.011508905
-0.00050635869
0.0023545973
0.0062544927
0.010348219
0.013040781
-0.0010455658
0.0021085162
0.0060928137
0.010081563
0.012791411
-0.00086762593
0.0019397088
0.0055155087
0.009132803
0.011677094
)
;
    }
    procBoundary22to21
    {
        type            processor;
        value           nonuniform List<scalar> 
25
(
-0.0032927407
-0.0026388857
-0.0019543362
-0.0013797203
-0.00097130101
-0.0039491857
-0.002976033
-0.0021476569
-0.0015016729
-0.00103915
-0.0044731574
-0.0032650289
-0.0023093209
-0.0016002597
-0.0011032929
-0.0047218112
-0.0034152257
-0.0024023102
-0.0016600148
-0.0011465291
-0.0047346706
-0.0034494398
-0.0024280961
-0.0016754318
-0.0011600914
)
;
    }
    procBoundary22to23
    {
        type            processor;
        value           nonuniform List<scalar> 
25
(
-0.0026053003
-0.0017760809
-0.001203258
-0.00080880701
-0.00054866127
-0.003131745
-0.0020491607
-0.0013521376
-0.00089478068
-0.00059626475
-0.003177492
-0.0021588914
-0.0014350798
-0.00094459869
-0.00062803867
-0.0029797072
-0.0021128616
-0.0014298891
-0.00094904831
-0.00063743405
-0.0025947743
-0.0019437978
-0.0013563735
-0.00091668038
-0.00062506294
)
;
    }
    procBoundary22to25
    {
        type            processor;
        value           nonuniform List<scalar> 
25
(
-0.00016290058
-0.00044930061
-0.00069567366
-0.00083948315
-0.00082990482
-0.0001806733
-0.00049362496
-0.00075736365
-0.00091229096
-0.00090292384
-0.00019229712
-0.00052459454
-0.00080538091
-0.0009713987
-0.00096551782
-0.00019167473
-0.00053751785
-0.00082988008
-0.0010027315
-0.0010012851
-0.00017773712
-0.00053123769
-0.00082839306
-0.0010057368
-0.0010083536
)
;
    }
}


// ************************************************************************* //
