/*--------------------------------*- C++ -*----------------------------------*\
| =========                 |                                                 |
| \\      /  F ield         | OpenFOAM: The Open Source CFD Toolbox           |
|  \\    /   O peration     | Version:  3.0.1                                 |
|   \\  /    A nd           | Web:      www.OpenFOAM.org                      |
|    \\/     M anipulation  |                                                 |
\*---------------------------------------------------------------------------*/
FoamFile
{
    version     2.0;
    format      ascii;
    class       volVectorField;
    location    "0.1";
    object      U;
}
// * * * * * * * * * * * * * * * * * * * * * * * * * * * * * * * * * * * * * //

dimensions      [0 1 -1 0 0 0 0];

internalField   nonuniform List<vector> 
125
(
(8.7953252e-06 -1.0758024e-06 7.6510286e-07)
(9.8080425e-06 -3.3900102e-06 2.7430106e-06)
(9.3411738e-06 -8.3045676e-06 4.5784127e-06)
(5.4686222e-06 -1.4090811e-05 5.8135642e-06)
(-2.0006899e-06 -1.7355495e-05 5.9874627e-06)
(6.739377e-06 -1.084883e-06 5.464888e-07)
(6.6973078e-06 -3.3427214e-06 1.5033421e-06)
(5.5528431e-06 -6.3846729e-06 2.3763251e-06)
(2.6561871e-06 -9.2909547e-06 2.9142204e-06)
(-1.8604707e-06 -1.0513869e-05 2.8875784e-06)
(4.8645264e-06 -9.0193567e-07 3.4428832e-07)
(4.5082526e-06 -2.6820412e-06 8.3372908e-07)
(3.3929405e-06 -4.5850104e-06 1.2530625e-06)
(1.3394265e-06 -6.1112359e-06 1.4943581e-06)
(-1.4710591e-06 -6.5418757e-06 1.439055e-06)
(3.3854993e-06 -6.8689131e-07 1.7810814e-07)
(3.0142331e-06 -1.9731977e-06 4.5714103e-07)
(2.1236485e-06 -3.1703743e-06 6.7694417e-07)
(6.9932187e-07 -4.0123977e-06 7.876812e-07)
(-1.0820057e-06 -4.141355e-06 7.3539243e-07)
(2.3494941e-06 -4.9414817e-07 9.4142789e-08)
(2.0247696e-06 -1.3776361e-06 2.4904595e-07)
(1.3537405e-06 -2.1495455e-06 3.7228532e-07)
(3.6844577e-07 -2.6352301e-06 4.2519421e-07)
(-7.8174215e-07 -2.6481824e-06 3.9051136e-07)
(1.068176e-05 -7.5714269e-07 -9.1552904e-08)
(1.1838048e-05 -5.0829859e-06 1.8186564e-06)
(1.0982814e-05 -1.1598596e-05 3.5243863e-06)
(6.3743982e-06 -1.8566773e-05 4.7256702e-06)
(-2.430598e-06 -2.251084e-05 5.2308169e-06)
(7.6755172e-06 -1.1283207e-06 1.392699e-07)
(7.6649184e-06 -4.193736e-06 1.064396e-06)
(6.3015148e-06 -7.9810303e-06 1.8925111e-06)
(2.9946152e-06 -1.1430433e-05 2.4636251e-06)
(-2.1591181e-06 -1.2884331e-05 2.6019665e-06)
(5.3646356e-06 -1.0081007e-06 1.3408264e-07)
(4.9853386e-06 -3.1591762e-06 6.1269712e-07)
(3.7461169e-06 -5.397643e-06 1.0332677e-06)
(1.4710972e-06 -7.1573468e-06 1.3045332e-06)
(-1.6600256e-06 -7.6448076e-06 1.3317688e-06)
(3.6816592e-06 -7.8432565e-07 7.846252e-08)
(3.2753761e-06 -2.2462342e-06 3.4940055e-07)
(2.3033442e-06 -3.5998379e-06 5.7486122e-07)
(7.4745064e-07 -4.5459577e-06 7.0348703e-07)
(-1.2036156e-06 -4.6798785e-06 6.9791579e-07)
(2.5171519e-06 -5.5630169e-07 3.5038842e-08)
(2.1698263e-06 -1.5338382e-06 1.8980725e-07)
(1.4463933e-06 -2.3826641e-06 3.095519e-07)
(3.910567e-07 -2.9140683e-06 3.749989e-07)
(-8.4908009e-07 -2.9209775e-06 3.6842727e-07)
(1.218102e-05 2.8377684e-07 -6.8567838e-07)
(1.3423982e-05 -5.5156785e-06 5.5541536e-07)
(1.2248188e-05 -1.313976e-05 1.5765465e-06)
(7.1750528e-06 -2.080231e-05 2.2682964e-06)
(-2.2105708e-06 -2.5429918e-05 2.7167199e-06)
(8.4472689e-06 -8.5924746e-07 -2.1057899e-07)
(8.450549e-06 -4.5486807e-06 4.2446324e-07)
(6.9520722e-06 -8.8757915e-06 9.898574e-07)
(3.3656426e-06 -1.2712092e-05 1.4001375e-06)
(-2.2006022e-06 -1.4412917e-05 1.5976717e-06)
(5.7869075e-06 -9.6274305e-07 -8.0404119e-08)
(5.4074376e-06 -3.3970367e-06 2.7759213e-07)
(4.0847765e-06 -5.9026603e-06 6.0388732e-07)
(1.6379276e-06 -7.8713739e-06 8.2412467e-07)
(-1.7336025e-06 -8.4459264e-06 9.0254313e-07)
(3.9321272e-06 -7.8593511e-07 -4.2774829e-08)
(3.5106318e-06 -2.3960876e-06 1.7083472e-07)
(2.4777349e-06 -3.8940901e-06 3.5351268e-07)
(8.2237643e-07 -4.941932e-06 4.6809807e-07)
(-1.2573268e-06 -5.1046966e-06 4.9795932e-07)
(2.6692589e-06 -5.7431257e-07 -2.6809987e-08)
(2.2992826e-06 -1.6313263e-06 9.6871537e-08)
(1.5389322e-06 -2.5519558e-06 1.9989665e-07)
(4.2732115e-07 -3.1285734e-06 2.6435289e-07)
(-8.8754355e-07 -3.1471474e-06 2.7319838e-07)
(1.2888716e-05 1.2069366e-06 -6.0578414e-07)
(1.4100273e-05 -5.131048e-06 -3.1625402e-07)
(1.2695695e-05 -1.2949852e-05 -2.1187112e-07)
(7.5145717e-06 -2.0514592e-05 -1.9473669e-07)
(-1.7918929e-06 -2.5233503e-05 5.0410601e-08)
(8.859641e-06 -5.2304643e-07 -3.2536862e-07)
(8.8653548e-06 -4.4715592e-06 -1.0034357e-07)
(7.277189e-06 -8.9536895e-06 7.8693198e-08)
(3.6024295e-06 -1.2874605e-05 2.0493977e-07)
(-2.0411779e-06 -1.4698508e-05 3.9436467e-07)
(6.04098e-06 -8.4029656e-07 -1.9797079e-07)
(5.66963e-06 -3.4128048e-06 -2.5325834e-08)
(4.2926494e-06 -6.0339877e-06 1.2708931e-07)
(1.7697531e-06 -8.0893863e-06 2.3057918e-07)
(-1.6787944e-06 -8.74452e-06 3.3605888e-07)
(4.0932083e-06 -7.3073152e-07 -1.3015203e-07)
(3.6716637e-06 -2.4269548e-06 -4.37281e-09)
(2.6006075e-06 -4.0038286e-06 9.7349342e-08)
(8.9189728e-07 -5.1057295e-06 1.6683346e-07)
(-1.2415915e-06 -5.3092232e-06 2.2009131e-07)
(2.7750618e-06 -5.5409069e-07 -8.3394047e-08)
(2.3965329e-06 -1.662664e-06 -4.9848178e-09)
(1.6138747e-06 -2.6269168e-06 6.6798711e-08)
(4.6435843e-07 -3.2308509e-06 1.1505412e-07)
(-8.9169828e-07 -3.2686734e-06 1.3315866e-07)
(1.2797581e-05 1.0158694e-06 -1.5763881e-07)
(1.3817895e-05 -4.781261e-06 -6.537562e-07)
(1.2369705e-05 -1.1925825e-05 -1.303055e-06)
(7.4373345e-06 -1.8884173e-05 -1.7544036e-06)
(-1.2370904e-06 -2.3382456e-05 -1.5844495e-06)
(8.9028362e-06 -4.5143411e-07 -2.4999124e-07)
(8.8546108e-06 -4.2577525e-06 -4.0738054e-07)
(7.2573555e-06 -8.5368311e-06 -5.9586662e-07)
(3.681314e-06 -1.2286776e-05 -6.9912618e-07)
(-1.7423025e-06 -1.4127268e-05 -5.2862326e-07)
(6.1080273e-06 -7.6752646e-07 -2.0577652e-07)
(5.7324978e-06 -3.301066e-06 -2.3887001e-07)
(4.3406815e-06 -5.8840041e-06 -2.7665272e-07)
(1.8468972e-06 -7.9094802e-06 -2.7553756e-07)
(-1.5297287e-06 -8.6201997e-06 -1.6308297e-07)
(4.151873e-06 -6.7135837e-07 -1.4822118e-07)
(3.7381332e-06 -2.3757466e-06 -1.3973914e-07)
(2.6489412e-06 -3.9543807e-06 -1.3527654e-07)
(9.451184e-07 -5.057457e-06 -1.1006534e-07)
(-1.1691615e-06 -5.3075968e-06 -4.1201333e-08)
(2.8186668e-06 -5.0935983e-07 -1.1423606e-07)
(2.4494754e-06 -1.6402511e-06 -9.4972305e-08)
(1.6589711e-06 -2.6112812e-06 -7.3592729e-08)
(4.936811e-07 -3.2232823e-06 -4.8485303e-08)
(-8.6571325e-07 -3.2876279e-06 -1.4573103e-08)
)
;

boundaryField
{
    movingWall
    {
        type            fixedValue;
        value           nonuniform 0();
    }
    CPLReceiveMD
    {
        type            fixedValue;
        value           nonuniform 0();
    }
    streamwiseIn
    {
        type            cyclic;
    }
    streamwiseOut
    {
        type            cyclic;
    }
    front
    {
        type            cyclic;
    }
    back
    {
        type            cyclic;
    }
    procBoundary22to4throughback
    {
        type            processorCyclic;
        value           nonuniform List<vector> 
25
(
(1.2313153e-05 3.8060075e-07 1.0822608e-07)
(8.70341e-06 -5.7118414e-07 -1.6975859e-07)
(6.0298557e-06 -7.3852649e-07 -1.8649822e-07)
(4.1255951e-06 -6.3919106e-07 -1.4231045e-07)
(2.7899551e-06 -4.6865228e-07 -1.0692291e-07)
(1.2954857e-05 -4.6050551e-06 -7.6696561e-07)
(8.5194794e-06 -4.056673e-06 -5.6100964e-07)
(5.5987538e-06 -3.1451634e-06 -3.7503678e-07)
(3.6846083e-06 -2.2830571e-06 -2.3976814e-07)
(2.4371763e-06 -1.5765334e-06 -1.5175052e-07)
(1.1595048e-05 -1.0774367e-05 -1.8104978e-06)
(6.9854434e-06 -7.9272872e-06 -1.0054256e-06)
(4.2559819e-06 -5.5733976e-06 -5.6239304e-07)
(2.6302813e-06 -3.8007686e-06 -3.1523789e-07)
(1.6603617e-06 -2.524301e-06 -1.8679032e-07)
(7.2331771e-06 -1.6958603e-05 -2.4893136e-06)
(3.6696729e-06 -1.1395739e-05 -1.2505895e-06)
(1.8833228e-06 -7.5003254e-06 -6.3347199e-07)
(9.8597249e-07 -4.8786773e-06 -3.2634301e-07)
(5.2337805e-07 -3.1333859e-06 -1.8672938e-07)
(-5.3432767e-07 -2.1319646e-05 -2.3029497e-06)
(-1.34179e-06 -1.3277142e-05 -1.0857515e-06)
(-1.311404e-06 -8.257098e-06 -5.1652965e-07)
(-1.0566639e-06 -5.1607134e-06 -2.4992871e-07)
(-7.9197061e-07 -3.2202903e-06 -1.3243496e-07)
)
;
    }
    procBoundary22to13
    {
        type            processor;
        value           nonuniform List<vector> 
25
(
(7.2345541e-06 -5.4152886e-07 1.3458615e-06)
(8.0247384e-06 -1.3802572e-06 2.5856683e-06)
(7.9122604e-06 -5.0303565e-06 3.9500075e-06)
(4.9653482e-06 -9.7668688e-06 4.8819085e-06)
(-1.0797637e-06 -1.2673219e-05 4.7071059e-06)
(5.9389397e-06 -7.0750615e-07 7.9987976e-07)
(5.8350821e-06 -2.2844544e-06 1.4682017e-06)
(4.8906364e-06 -4.6556801e-06 2.1230686e-06)
(2.483362e-06 -7.1112269e-06 2.5028703e-06)
(-1.334618e-06 -8.3359236e-06 2.3295921e-06)
(4.4364832e-06 -6.3972005e-07 4.691804e-07)
(4.0765644e-06 -2.1129752e-06 8.3021536e-07)
(3.0854879e-06 -3.698262e-06 1.1423351e-06)
(1.2851047e-06 -5.0308076e-06 1.2976533e-06)
(-1.1735644e-06 -5.4926216e-06 1.1725121e-06)
(3.1653052e-06 -5.3418012e-07 2.6420448e-07)
(2.7765401e-06 -1.661551e-06 4.5825986e-07)
(1.972804e-06 -2.7190608e-06 6.1550346e-07)
(6.8900238e-07 -3.4767938e-06 6.8060864e-07)
(-9.1840172e-07 -3.6313348e-06 5.9991247e-07)
(2.2060561e-06 -4.1382568e-07 1.4836318e-07)
(1.8916838e-06 -1.2053312e-06 2.6047956e-07)
(1.2702451e-06 -1.9014556e-06 3.4697031e-07)
(3.7283066e-07 -2.3493331e-06 3.7365516e-07)
(-6.7866192e-07 -2.3909952e-06 3.2202735e-07)
)
;
    }
    procBoundary22to19
    {
        type            processor;
        value           nonuniform List<vector> 
25
(
(1.0102406e-05 -4.9379214e-07 7.6210264e-07)
(1.3926073e-05 -1.195764e-06 5.2060708e-06)
(1.6253644e-05 -9.5574251e-06 8.9445651e-06)
(1.1707114e-05 -2.1468847e-05 1.1714125e-05)
(-1.2152124e-06 -2.9585877e-05 1.27252e-05)
(1.4301907e-05 9.6048521e-07 -1.2203093e-06)
(1.8506372e-05 -5.0421418e-06 3.1900643e-06)
(1.9785302e-05 -1.6566456e-05 6.7277038e-06)
(1.3906859e-05 -3.0982629e-05 9.1751245e-06)
(-1.5058485e-06 -4.162975e-05 1.0676389e-05)
(1.7407819e-05 4.0400592e-06 -2.1746583e-06)
(2.1874086e-05 -5.5016899e-06 4.7252535e-07)
(2.2238704e-05 -1.9066917e-05 2.3411127e-06)
(1.56558e-05 -3.4501536e-05 3.3479558e-06)
(-1.0317548e-07 -4.6817409e-05 4.3203339e-06)
(1.876809e-05 6.6642033e-06 -1.0574612e-06)
(2.3022143e-05 -4.2710846e-06 -8.3476103e-07)
(2.2660733e-05 -1.7946827e-05 -1.1352425e-06)
(1.588608e-05 -3.2385844e-05 -1.7131977e-06)
(7.9990571e-07 -4.4131042e-05 -1.6530975e-06)
(1.8151687e-05 5.3379704e-06 5.7634465e-07)
(2.1796305e-05 -3.7979159e-06 -9.3337343e-07)
(2.1360267e-05 -1.5675686e-05 -2.7713515e-06)
(1.5137945e-05 -2.824469e-05 -4.2551145e-06)
(1.4810893e-06 -3.8607197e-05 -4.4424801e-06)
)
;
    }
    procBoundary22to21
    {
        type            processor;
        value           nonuniform List<vector> 
25
(
(8.2121852e-06 -2.6981401e-08 -7.0419483e-07)
(6.4464495e-06 5.8807743e-07 -2.3323544e-07)
(4.7506796e-06 6.7183655e-07 -9.4423325e-08)
(3.3722102e-06 5.418345e-07 -5.9213005e-08)
(2.3597842e-06 3.8817576e-07 -6.2049786e-08)
(9.3311655e-06 1.543404e-06 -1.5670381e-06)
(7.1325255e-06 1.1233879e-06 -6.434958e-07)
(5.1743533e-06 8.3468171e-07 -3.0968399e-07)
(3.6285939e-06 6.0124961e-07 -1.972274e-07)
(2.5153725e-06 4.2611932e-07 -1.2995751e-07)
(1.0128085e-05 3.4448718e-06 -1.6515413e-06)
(7.6711601e-06 1.8454315e-06 -7.5966055e-07)
(5.5092765e-06 1.118105e-06 -3.9875222e-07)
(3.8399836e-06 7.2156099e-07 -2.4071431e-07)
(2.6534881e-06 4.9033657e-07 -1.6103842e-07)
(1.051306e-05 4.7774014e-06 -9.328151e-07)
(7.975628e-06 2.376177e-06 -5.5591085e-07)
(5.711883e-06 1.353628e-06 -3.4644566e-07)
(3.9749996e-06 8.3896341e-07 -2.2411864e-07)
(2.7444165e-06 5.5747981e-07 -1.5439274e-07)
(1.0779075e-05 4.4675898e-06 -7.8192647e-08)
(8.1212253e-06 2.431801e-06 -2.5114959e-07)
(5.7954399e-06 1.4498972e-06 -2.2774575e-07)
(4.0244925e-06 9.1361391e-07 -1.7212594e-07)
(2.77746e-06 6.0586431e-07 -1.0986557e-07)
)
;
    }
    procBoundary22to23
    {
        type            processor;
        value           nonuniform List<vector> 
25
(
(-1.082977e-05 -1.4736069e-05 4.4627299e-06)
(-6.799887e-06 -8.7613239e-06 2.0897203e-06)
(-4.3523528e-06 -5.332771e-06 1.0078969e-06)
(-2.8230271e-06 -3.3230808e-06 5.0246736e-07)
(-1.8547869e-06 -2.0946549e-06 2.5477604e-07)
(-1.2965875e-05 -1.9220043e-05 4.5157893e-06)
(-7.8619689e-06 -1.0659861e-05 2.1234935e-06)
(-4.9053941e-06 -6.2018443e-06 1.0419897e-06)
(-3.1134434e-06 -3.7350122e-06 5.2816594e-07)
(-2.0093531e-06 -2.2945518e-06 2.6919749e-07)
(-1.3785805e-05 -2.2899737e-05 2.9070015e-06)
(-8.4205761e-06 -1.2235123e-05 1.5180778e-06)
(-5.2307578e-06 -6.9280986e-06 8.0535587e-07)
(-3.2959851e-06 -4.095873e-06 4.3012212e-07)
(-2.1210228e-06 -2.4799915e-06 2.2173469e-07)
(-1.3485939e-05 -2.3355675e-05 7.7874362e-07)
(-8.4112359e-06 -1.2761506e-05 6.6323951e-07)
(-5.2754481e-06 -7.2897999e-06 4.3445303e-07)
(-3.344161e-06 -4.3186334e-06 2.5499882e-07)
(-2.1639505e-06 -2.6057905e-06 1.3688443e-07)
(-1.2325563e-05 -2.2107565e-05 -4.9683834e-07)
(-7.9490124e-06 -1.2579414e-05 2.6174461e-10)
(-5.0922501e-06 -7.3363393e-06 9.1852906e-08)
(-3.2736231e-06 -4.3934416e-06 7.4862274e-08)
(-2.1395497e-06 -2.6614234e-06 5.1242369e-08)
)
;
    }
    procBoundary22to25
    {
        type            processor;
        value           nonuniform List<vector> 
25
(
(1.6196874e-06 -3.4052998e-07 3.5632132e-08)
(1.3588358e-06 -9.3831718e-07 1.2863396e-07)
(8.6605447e-07 -1.4371162e-06 1.9573568e-07)
(2.0068495e-07 -1.7216379e-06 2.2294607e-07)
(-5.4143056e-07 -1.6943947e-06 2.0541018e-07)
(1.7217017e-06 -3.7649744e-07 -1.7018782e-09)
(1.4490137e-06 -1.0259299e-06 9.5710373e-08)
(9.2311417e-07 -1.5593098e-06 1.7245089e-07)
(2.0913731e-07 -1.8607584e-06 2.1014367e-07)
(-5.840991e-07 -1.8297648e-06 1.9895077e-07)
(1.8104644e-06 -3.9629845e-07 -4.0563829e-08)
(1.5329886e-06 -1.0859402e-06 4.2009005e-08)
(9.8048777e-07 -1.651671e-06 1.0926003e-07)
(2.2718484e-07 -1.9727596e-06 1.5131542e-07)
(-6.0874485e-07 -1.9421793e-06 1.5026336e-07)
(1.8730645e-06 -3.9167881e-07 -6.5199287e-08)
(1.5988376e-06 -1.1078516e-06 -1.3297583e-08)
(1.0324206e-06 -1.6969109e-06 3.8023926e-08)
(2.5014064e-07 -2.0335822e-06 7.212464e-08)
(-6.1653108e-07 -2.0088165e-06 7.9610773e-08)
(1.9057577e-06 -3.6359597e-07 -6.2782778e-08)
(1.6362118e-06 -1.0917162e-06 -5.3608599e-08)
(1.06591e-06 -1.6918647e-06 -3.2660798e-08)
(2.6877168e-07 -2.0395441e-06 -1.2600357e-08)
(-6.0730261e-07 -2.0239524e-06 7.1817815e-09)
)
;
    }
}


// ************************************************************************* //
