/*--------------------------------*- C++ -*----------------------------------*\
| =========                 |                                                 |
| \\      /  F ield         | OpenFOAM: The Open Source CFD Toolbox           |
|  \\    /   O peration     | Version:  3.0.1                                 |
|   \\  /    A nd           | Web:      www.OpenFOAM.org                      |
|    \\/     M anipulation  |                                                 |
\*---------------------------------------------------------------------------*/
FoamFile
{
    version     2.0;
    format      ascii;
    class       surfaceScalarField;
    location    "0.2";
    object      phi;
}
// * * * * * * * * * * * * * * * * * * * * * * * * * * * * * * * * * * * * * //

dimensions      [0 3 -1 0 0 0 0];

internalField   nonuniform List<scalar> 
300
(
0.011354087
0.0072470986
0.0021268102
0.012008995
0.0034709268
0.00015220899
0.011368214
-5.0615075e-05
-0.0015790807
0.010037472
-0.0032038548
-0.0032520273
-0.0061876387
-0.004848882
0.0076020259
0.0050578
0.0013236289
0.0084908308
0.0025405496
0.00010359466
0.0082133558
-6.0496153e-05
-0.0010154636
0.0070549251
-0.0025031409
-0.0020526564
-0.0046785146
-0.0029873099
0.0051590911
0.0034638829
0.00079294279
0.0058944376
0.0017859539
6.031097e-05
0.0057716619
-5.5211533e-05
-0.00063017597
0.0048801447
-0.0018400163
-0.001261728
-0.0033934283
-0.0017921242
0.0034983928
0.002335317
0.00047582855
0.0040563021
0.0012303889
4.0863267e-05
0.0039880537
-3.7967893e-05
-0.00037966829
0.0033275335
-0.0013033856
-0.00075695814
-0.0023941003
-0.0010512042
0.0023960844
0.00030176328
0.0027892398
2.5248168e-05
0.0027233894
-0.00023343269
0.0022376893
-0.00045159765
-0.000608538
0.0093521725
0.0064336359
0.0011942307
0.010273731
0.0034172347
9.2173882e-06
0.0096924383
0.00051090139
-0.00084344568
0.0084112332
-0.0020029256
-0.0017285322
-0.0042954128
-0.002836619
0.006390161
0.0045222437
0.0008151338
0.0073707734
0.0024944517
5.3208098e-05
0.0071751779
0.00032351967
-0.00061895428
0.0061176574
-0.0017122357
-0.0012630091
-0.0034799371
-0.0018950277
0.0044333826
0.0031443419
0.00051747032
0.0052035416
0.0017650828
3.9638054e-05
0.0051397411
0.00019459592
-0.00041492971
0.0043496161
-0.0013353375
-0.00083307494
-0.0026518862
-0.001196098
0.0030642273
0.0021601034
0.0003233096
0.0036355968
0.0012139994
2.2363799e-05
0.0036106754
0.00010783694
-0.00026434436
0.0030332631
-0.00099822726
-0.00052251846
-0.0019514004
-0.00072966072
0.0021196238
0.0001977452
0.0025307471
1.3624239e-05
0.0025052978
-0.00016439454
0.0020805094
-0.00031935844
-0.0004321746
0.0082022022
0.0060540146
0.00032359449
0.0094182564
0.0034615737
-4.2760952e-05
0.0088083007
0.00073369388
-0.00020667869
0.0073031325
-0.0015431512
-0.00038207135
-0.0033597737
-0.00079599203
0.0056296793
0.0042224238
0.00024417006
0.006697892
0.0024801344
-2.2671943e-05
0.0065312241
0.0005264001
-0.00022699616
0.0054856244
-0.0012842544
-0.00043872068
-0.0027831321
-0.0006955869
0.0039432999
0.0029489542
0.00017832843
0.0047489003
0.0017470232
-1.0183848e-05
0.0047213955
0.00034418593
-0.00017913605
0.003986473
-0.0010257456
-0.00034135088
-0.0021860191
-0.00049279186
0.0027628035
0.002034624
0.00011962378
0.0033488108
0.0012048004
-5.6475301e-06
0.0033522792
0.00020734311
-0.0001242377
0.0028261805
-0.00079531598
-0.00023412635
-0.0016539748
-0.00032448785
0.0019351712
7.3104499e-05
0.0023527057
-3.7206929e-06
0.0023503578
-8.0109908e-05
0.0019674948
-0.00015080321
-0.00020686254
0.0078750357
0.0059752443
-0.00062944377
0.0092532902
0.0034819978
-0.00017958994
0.0086366931
0.00070977508
0.00021842808
0.0068932425
-0.0016144574
0.00058127773
-0.0032799044
0.00074630811
0.0054106571
0.0041569113
-0.0003628554
0.0064941071
0.0024925949
-0.00011915703
0.0063207898
0.00057329616
9.8878031e-05
0.0052300984
-0.0011898176
0.00026583563
-0.0025839643
0.00037260728
0.0037558424
0.0028905646
-0.00018617365
0.004580406
0.001751436
-7.0430736e-05
0.0045595681
0.00039852161
4.1931679e-05
0.0038356169
-0.00091930322
0.00012664617
-0.0020186791
0.00018756662
0.002628772
0.0019886559
-9.5616044e-05
0.0032303544
0.0012067459
-3.8371901e-05
0.0032425511
0.00025120894
1.6058546e-05
0.0027362731
-0.00071223994
5.8016529e-05
-0.0015365324
9.1598789e-05
0.0018574273
-4.299533e-05
0.0022763128
-5.6682218e-06
0.0022798383
2.1086176e-05
0.0019118758
3.1926835e-05
3.5693076e-05
0.0083376469
0.0062468152
0.0096529802
0.0035440251
0.0090153421
0.00058855974
0.0070577665
-0.001955351
-0.0037856403
0.0056617803
0.0043368046
0.0067131536
0.0025426983
0.0064959711
0.00051608036
0.0053335055
-0.001337858
-0.0027765645
0.0038846434
0.0029822566
0.0046927874
0.0017841778
0.0046455761
0.00037288533
0.0038971056
-0.0009888881
-0.0021160351
0.0026938747
0.0020420667
0.0032845458
0.0012396759
0.0032846884
0.00025640219
0.0027700866
-0.00073652119
-0.0015924406
0.0018901374
0.0023030987
0.0022923169
0.0019142179
)
;

boundaryField
{
    movingWall
    {
        type            calculated;
        value           nonuniform 0();
    }
    CPLReceiveMD
    {
        type            calculated;
        value           nonuniform 0();
    }
    streamwiseIn
    {
        type            cyclic;
        value           nonuniform 0();
    }
    streamwiseOut
    {
        type            cyclic;
        value           nonuniform 0();
    }
    front
    {
        type            cyclic;
        value           nonuniform 0();
    }
    back
    {
        type            cyclic;
        value           nonuniform 0();
    }
    procBoundary12to3
    {
        type            processor;
        value           nonuniform List<scalar> 
25
(
-0.0025506809
3.8917018e-06
0.0021860097
0.0041627887
0.0060646536
-0.0015624238
-5.0303571e-05
0.001308843
0.0025237963
0.0035955219
-0.00092949417
-4.7850089e-05
0.00076964922
0.0014940077
0.0020881016
-0.00052575955
-3.194851e-05
0.00045088504
0.00087578444
0.0012017004
-0.00026813862
-4.7765695e-07
0.00027423995
0.00051779475
0.00070106279
)
;
    }
    procBoundary12to9
    {
        type            processor;
        value           nonuniform List<scalar> 
25
(
-0.010178432
-0.0043129209
0.00010259446
0.0035829697
0.0075746673
-0.0091172896
-0.004211876
-0.00067246171
0.0017997923
0.0046421938
-0.0089369879
-0.0046420674
-0.00074980974
0.0017249516
0.0036480749
-0.0087731588
-0.0046977253
-0.00047616671
0.0024529409
0.0043168654
-0.0089105764
-0.0046997188
-0.00019898293
0.0034540216
0.0056577787
)
;
    }
    procBoundary12to13
    {
        type            processor;
        value           nonuniform List<scalar> 
25
(
0.0074172369
0.0048845726
0.0032226199
0.0021294444
0.0014083695
0.0060299682
0.004218214
0.0029048441
0.0019761928
0.0013277037
0.0049401863
0.0037296243
0.0026818316
0.0018762663
0.0012837279
0.0042927875
0.0034729403
0.0025798177
0.001837777
0.0012814255
0.0043081598
0.0035169066
0.0026118025
0.0018653243
0.0013202069
)
;
    }
    procBoundary12to14throughstreamwiseIn
    {
        type            processorCyclic;
        value           nonuniform List<scalar> 
25
(
-0.0081033752
-0.0052365925
-0.0034378757
-0.0022686128
-0.0014869931
-0.0058605504
-0.0039914977
-0.0027474263
-0.0018900154
-0.0012890888
-0.0044654691
-0.0032114182
-0.002296775
-0.0016338416
-0.001154556
-0.0041411198
-0.0029971583
-0.0021546586
-0.0015501946
-0.0011274509
-0.0047714688
-0.0033090847
-0.0023260056
-0.0016653531
-0.0012365659
)
;
    }
    procBoundary12to15
    {
        type            processor;
        value           nonuniform List<scalar> 
25
(
0.0016197046
0.00084163712
-4.4584427e-05
-0.00091752279
-0.001653019
0.0014708024
0.00081393332
3.5467777e-05
-0.00074265221
-0.0014044114
0.0013651958
0.000796678
9.5082e-05
-0.0006139703
-0.0012202733
0.0012967954
0.00078355895
0.00012504271
-0.00054672219
-0.0011202118
0.0012512844
0.00075037078
0.00010604753
-0.00055278722
-0.0011115678
)
;
    }
    procBoundary12to21
    {
        type            processor;
        value           nonuniform List<scalar> 
25
(
-0.0014645072
-0.00021208048
0.00066639185
0.0011959168
0.0017112671
-0.00092984345
-0.00017061713
0.00041757262
0.00083987004
0.0011810644
-0.00058191212
-0.00011769605
0.00025600994
0.00054049413
0.00075236298
-0.00038598171
-9.0109811e-05
0.00014874989
0.00033908691
0.00047094395
-0.00029962251
-0.00010276701
6.5198003e-05
0.00020835275
0.00032293006
)
;
    }
}


// ************************************************************************* //
