/*--------------------------------*- C++ -*----------------------------------*\
| =========                 |                                                 |
| \\      /  F ield         | OpenFOAM: The Open Source CFD Toolbox           |
|  \\    /   O peration     | Version:  3.0.1                                 |
|   \\  /    A nd           | Web:      www.OpenFOAM.org                      |
|    \\/     M anipulation  |                                                 |
\*---------------------------------------------------------------------------*/
FoamFile
{
    version     2.0;
    format      ascii;
    class       volVectorField;
    location    "0.2";
    object      U;
}
// * * * * * * * * * * * * * * * * * * * * * * * * * * * * * * * * * * * * * //

dimensions      [0 1 -1 0 0 0 0];

internalField   nonuniform List<vector> 
125
(
(2.4462226e-05 2.1761239e-05 5.8693425e-06)
(2.9348706e-05 9.7303556e-06 1.996104e-07)
(2.923786e-05 -1.9201569e-07 -4.7021651e-06)
(2.6764298e-05 -8.4999279e-06 -9.2744206e-06)
(2.1825537e-05 -1.7210349e-05 -1.3726476e-05)
(1.6159392e-05 1.5363492e-05 3.6172229e-06)
(2.0236186e-05 7.5106677e-06 1.9893076e-07)
(2.0894017e-05 -1.4032988e-07 -2.9029577e-06)
(1.9092838e-05 -7.1361183e-06 -5.7207223e-06)
(1.4930009e-05 -1.3583766e-05 -8.2453244e-06)
(1.0768707e-05 1.0640109e-05 2.1578468e-06)
(1.3844884e-05 5.4032237e-06 1.3821061e-07)
(1.4591073e-05 -1.4703057e-07 -1.748373e-06)
(1.3320861e-05 -5.4306227e-06 -3.4444644e-06)
(1.0133294e-05 -1.0090723e-05 -4.8510064e-06)
(7.2113115e-06 7.2428463e-06 1.2542625e-06)
(9.4490462e-06 3.76646e-06 9.2353284e-08)
(1.006017e-05 -1.1858548e-07 -1.0373672e-06)
(9.1491457e-06 -3.9301939e-06 -2.0405504e-06)
(6.8253502e-06 -7.2347214e-06 -2.8161805e-06)
(4.8532681e-06 4.9399302e-06 7.1325528e-07)
(6.483452e-06 2.586862e-06 3.3008865e-08)
(6.8944195e-06 -1.0496692e-07 -6.3419864e-07)
(6.2047254e-06 -2.7768776e-06 -1.2116263e-06)
(4.5608406e-06 -5.0591994e-06 -1.6370338e-06)
(1.9182146e-05 1.9432315e-05 4.1650864e-06)
(2.4708813e-05 9.5491643e-06 2.1190015e-07)
(2.4973647e-05 1.4799106e-06 -3.0203478e-06)
(2.2635277e-05 -4.7852106e-06 -6.2192796e-06)
(1.8056255e-05 -1.1205553e-05 -9.6391701e-06)
(1.3076637e-05 1.3687326e-05 2.6809017e-06)
(1.7309453e-05 7.3884923e-06 2.0103296e-07)
(1.8195483e-05 1.0426388e-06 -2.0389668e-06)
(1.6622436e-05 -4.6477783e-06 -4.1417472e-06)
(1.2924237e-05 -9.725418e-06 -6.1047551e-06)
(8.9885106e-06 9.5771138e-06 1.6417447e-06)
(1.2064126e-05 5.3220472e-06 1.2753671e-07)
(1.2937377e-05 6.4652693e-07 -1.3041848e-06)
(1.186722e-05 -3.8106816e-06 -2.6170715e-06)
(9.0723721e-06 -7.6665165e-06 -3.7352004e-06)
(6.1935168e-06 6.6264081e-06 1.0003827e-06)
(8.3788664e-06 3.7214197e-06 8.0199953e-08)
(9.0627538e-06 3.7680402e-07 -8.0396264e-07)
(8.3093928e-06 -2.9176178e-06 -1.5985842e-06)
(6.265641e-06 -5.7546497e-06 -2.2259597e-06)
(4.2601862e-06 4.5358083e-06 6.250896e-07)
(5.8145215e-06 2.5327137e-06 4.9155826e-08)
(6.2983391e-06 1.7776784e-07 -4.9676244e-07)
(5.7357658e-06 -2.1769382e-06 -9.6332001e-07)
(4.263224e-06 -4.1957536e-06 -1.300656e-06)
(1.5953718e-05 1.8728043e-05 1.8989421e-06)
(2.2163271e-05 1.0131557e-05 -4.0756385e-08)
(2.280668e-05 1.8631642e-06 -1.30473e-06)
(2.0145476e-05 -4.0850484e-06 -2.6206229e-06)
(1.5306313e-05 -8.7628506e-06 -4.5201428e-06)
(1.1147676e-05 1.284015e-05 1.3263e-06)
(1.5516318e-05 7.4263043e-06 3.9834592e-08)
(1.6551237e-05 1.5758332e-06 -1.053392e-06)
(1.502705e-05 -3.5339103e-06 -2.1208518e-06)
(1.1521857e-05 -7.6797967e-06 -3.2315406e-06)
(7.8280183e-06 8.9595904e-06 8.7003957e-07)
(1.0898954e-05 5.2823907e-06 3.7863992e-08)
(1.1846465e-05 1.0879736e-06 -7.4054832e-07)
(1.0889846e-05 -2.8874596e-06 -1.465818e-06)
(8.3388874e-06 -6.2119276e-06 -2.1090752e-06)
(5.4975995e-06 6.2261912e-06 5.5328944e-07)
(7.6447008e-06 3.6880791e-06 2.1306809e-08)
(8.3813862e-06 6.8883683e-07 -4.849833e-07)
(7.7271487e-06 -2.2764424e-06 -9.4519982e-07)
(5.8814404e-06 -4.8001769e-06 -1.3170401e-06)
(3.861338e-06 4.2476541e-06 3.3886204e-07)
(5.3616e-06 2.5002048e-06 1.2583563e-08)
(5.8819436e-06 3.7706159e-07 -3.0537924e-07)
(5.4008319e-06 -1.7622529e-06 -5.8746574e-07)
(4.0668516e-06 -3.5945438e-06 -7.9811452e-07)
(1.5091251e-05 1.8421759e-05 -3.884113e-07)
(2.1505141e-05 1.0224095e-05 -2.8195887e-07)
(2.2393781e-05 1.5057286e-06 1.878217e-08)
(1.9419864e-05 -4.9739161e-06 2.7964648e-07)
(1.3980979e-05 -9.174809e-06 -2.8835552e-08)
(1.0547183e-05 1.2658424e-05 -1.5165201e-07)
(1.4929761e-05 7.4671127e-06 -1.7938584e-07)
(1.6034796e-05 1.6068205e-06 -1.5882661e-07)
(1.4444288e-05 -3.4929734e-06 -2.027845e-07)
(1.0880368e-05 -7.3143505e-06 -3.9450507e-07)
(7.4158147e-06 8.8041032e-06 -1.0986363e-08)
(1.0453538e-05 5.3035194e-06 -1.016721e-07)
(1.1433695e-05 1.2149356e-06 -1.7139426e-07)
(1.0498693e-05 -2.6350296e-06 -2.6616913e-07)
(8.022082e-06 -5.752016e-06 -3.7869852e-07)
(5.2372294e-06 6.0952305e-06 2.9398435e-08)
(7.3405937e-06 3.6961393e-06 -5.5305714e-08)
(8.0962471e-06 8.1197309e-07 -1.3517864e-07)
(7.4773359e-06 -2.0392656e-06 -2.1968516e-07)
(5.7207643e-06 -4.443689e-06 -2.9045977e-07)
(3.7314082e-06 4.1044658e-06 3.7259434e-08)
(5.1702802e-06 2.4863141e-06 -1.1920149e-08)
(5.6982898e-06 4.6949461e-07 -7.3673667e-08)
(5.2430305e-06 -1.5741874e-06 -1.4606564e-07)
(3.9944518e-06 -3.322281e-06 -2.134713e-07)
(1.645775e-05 1.8928969e-05 -2.6361687e-06)
(2.2570464e-05 1.0303599e-05 -5.0145502e-07)
(2.3368285e-05 1.029821e-06 1.0968048e-06)
(2.0097858e-05 -6.190172e-06 2.2325445e-06)
(1.4201958e-05 -1.1062808e-05 3.0896647e-06)
(1.1244836e-05 1.3217575e-05 -1.6262549e-06)
(1.5509143e-05 7.6065911e-06 -3.6847185e-07)
(1.6527838e-05 1.3856568e-06 6.4211883e-07)
(1.4791371e-05 -4.0797259e-06 1.3899191e-06)
(1.1063603e-05 -8.0296597e-06 1.9505935e-06)
(7.7752565e-06 9.1406409e-06 -9.6716149e-07)
(1.0738546e-05 5.4064708e-06 -2.3878864e-07)
(1.1681968e-05 1.1116216e-06 3.7071645e-07)
(1.0682541e-05 -2.9043603e-06 8.3471554e-07)
(8.1384304e-06 -6.1078823e-06 1.1792866e-06)
(5.4531478e-06 6.274437e-06 -6.0694502e-07)
(7.4801237e-06 3.777831e-06 -1.6313101e-07)
(8.2170068e-06 7.8655743e-07 2.0473009e-07)
(7.5718675e-06 -2.1563389e-06 4.9646416e-07)
(5.7977888e-06 -4.6349497e-06 7.1455102e-07)
(3.9153434e-06 4.1127529e-06 -4.2950413e-07)
(5.2506669e-06 2.4852137e-06 -1.3719093e-07)
(5.7477982e-06 4.5168516e-07 1.0605564e-07)
(5.2610343e-06 -1.6125253e-06 3.0136192e-07)
(4.0457784e-06 -3.3801978e-06 4.4925468e-07)
)
;

boundaryField
{
    movingWall
    {
        type            fixedValue;
        value           nonuniform 0();
    }
    CPLReceiveMD
    {
        type            fixedValue;
        value           nonuniform 0();
    }
    streamwiseIn
    {
        type            cyclic;
    }
    streamwiseOut
    {
        type            cyclic;
    }
    front
    {
        type            cyclic;
    }
    back
    {
        type            cyclic;
    }
    procBoundary12to3
    {
        type            processor;
        value           nonuniform List<vector> 
25
(
(3.1096869e-05 2.4708816e-05 5.8620871e-06)
(3.5280321e-05 9.4265325e-06 -5.2324133e-07)
(3.4447679e-05 -2.9546437e-06 -5.8422832e-06)
(3.1659588e-05 -1.3713304e-05 -1.055191e-05)
(2.6351057e-05 -2.536542e-05 -1.522057e-05)
(1.9948191e-05 1.7398822e-05 3.6847225e-06)
(2.3829634e-05 7.4498921e-06 -9.3268894e-08)
(2.4115136e-05 -1.9111532e-06 -3.3954713e-06)
(2.1964803e-05 -1.0477734e-05 -6.2973808e-06)
(1.7268103e-05 -1.8600888e-05 -8.880363e-06)
(1.2944544e-05 1.1940074e-05 2.2431364e-06)
(1.5970345e-05 5.4286247e-06 4.5898245e-08)
(1.6520052e-05 -1.2190636e-06 -1.9429999e-06)
(1.4969853e-05 -7.4908534e-06 -3.6764276e-06)
(1.1349483e-05 -1.309566e-05 -5.0948739e-06)
(8.4820942e-06 8.0709996e-06 1.3044009e-06)
(1.0670496e-05 3.8266214e-06 6.8999351e-08)
(1.1195657e-05 -7.3737037e-07 -1.1084398e-06)
(1.0088206e-05 -5.1504559e-06 -2.1275607e-06)
(7.4509092e-06 -8.9686223e-06 -2.9117207e-06)
(5.6600541e-06 5.2920952e-06 7.3151092e-07)
(7.1619754e-06 2.5764291e-06 4.5792095e-08)
(7.5429743e-06 -4.9202209e-07 -6.3463585e-07)
(6.738601e-06 -3.5128878e-06 -1.2361055e-06)
(4.8609389e-06 -6.0842354e-06 -1.6812795e-06)
)
;
    }
    procBoundary12to9
    {
        type            processor;
        value           nonuniform List<vector> 
25
(
(3.7752519e-05 2.9766842e-05 8.8937235e-06)
(4.2189442e-05 1.0526273e-05 7.6299037e-08)
(3.9124301e-05 -7.4823102e-07 -7.3375121e-06)
(3.6111172e-05 -8.0296217e-06 -1.4648816e-05)
(3.1824313e-05 -1.9313139e-05 -2.2405191e-05)
(2.8907067e-05 2.7341391e-05 5.7140972e-06)
(3.5261858e-05 9.6617286e-06 -2.0016809e-07)
(3.2529858e-05 1.3969012e-06 -4.0941467e-06)
(2.9307901e-05 -2.0925059e-06 -8.5566268e-06)
(2.4860262e-05 -1.0463636e-05 -1.4552253e-05)
(2.3442847e-05 2.9068383e-05 2.3368565e-06)
(3.2381197e-05 1.3181225e-05 -6.3509614e-07)
(3.0767842e-05 6.7416378e-07 -1.0792099e-06)
(2.5653065e-05 -4.3144958e-06 -1.9321463e-06)
(1.9303388e-05 -8.8235101e-06 -5.262285e-06)
(2.2093466e-05 2.8174318e-05 -3.5257789e-07)
(3.1845792e-05 1.3560648e-05 -3.5142771e-07)
(3.1232807e-05 -5.8998712e-07 6.7451667e-07)
(2.5124825e-05 -7.9338943e-06 1.9023391e-06)
(1.6380826e-05 -1.2306608e-05 1.9054518e-06)
(2.4595824e-05 2.7389115e-05 -3.8696075e-06)
(3.3408292e-05 1.3571687e-05 -5.8188905e-07)
(3.3021609e-05 -1.0388124e-06 1.6517849e-06)
(2.6884e-05 -1.1078992e-05 3.2056018e-06)
(1.661459e-05 -1.8412928e-05 4.6945814e-06)
)
;
    }
    procBoundary12to13
    {
        type            processor;
        value           nonuniform List<vector> 
25
(
(1.3133969e-05 -2.5394232e-05 -1.7569223e-05)
(8.2214203e-06 -1.8828361e-05 -1.0064588e-05)
(5.2167422e-06 -1.3535282e-05 -5.721575e-06)
(3.3371041e-06 -9.5026469e-06 -3.2258185e-06)
(2.1324439e-06 -6.593217e-06 -1.8093412e-06)
(1.0889512e-05 -1.6721236e-05 -1.2738504e-05)
(7.3129617e-06 -1.3631661e-05 -7.5498998e-06)
(4.8719631e-06 -1.0469277e-05 -4.4114777e-06)
(3.2114494e-06 -7.7267658e-06 -2.542494e-06)
(2.0922075e-06 -5.5587912e-06 -1.457309e-06)
(9.0473862e-06 -1.186658e-05 -6.6958986e-06)
(6.6326229e-06 -1.0501336e-05 -4.1647209e-06)
(4.6344152e-06 -8.5278758e-06 -2.5161081e-06)
(3.1415828e-06 -6.5484782e-06 -1.4900766e-06)
(2.0822816e-06 -4.8629513e-06 -8.5623801e-07)
(7.8928568e-06 -1.0474374e-05 -8.2470812e-07)
(6.2813111e-06 -9.4518704e-06 -6.6103824e-07)
(4.5415736e-06 -7.794633e-06 -4.6662618e-07)
(3.130877e-06 -6.0668958e-06 -3.0333676e-07)
(2.101224e-06 -4.5777081e-06 -1.6713882e-07)
(7.9903793e-06 -1.1741159e-05 4.2090237e-06)
(6.42694e-06 -1.0143254e-05 2.5107903e-06)
(4.644055e-06 -8.1701743e-06 1.4762235e-06)
(3.1945684e-06 -6.2489908e-06 8.3830837e-07)
(2.1568756e-06 -4.7035861e-06 4.3678419e-07)
)
;
    }
    procBoundary12to14throughstreamwiseIn
    {
        type            processorCyclic;
        value           nonuniform List<vector> 
25
(
(1.2820068e-05 3.1323481e-05 1.2114333e-05)
(8.3311213e-06 2.1204186e-05 7.0704844e-06)
(5.4839812e-06 1.4351304e-05 4.0942438e-06)
(3.6189377e-06 9.6818988e-06 2.3809307e-06)
(2.3828701e-06 6.4044457e-06 1.4328767e-06)
(7.7773541e-06 2.5379594e-05 8.7204078e-06)
(5.5670673e-06 1.7582127e-05 5.2127488e-06)
(3.9414955e-06 1.2205167e-05 3.0682253e-06)
(2.7672612e-06 8.449744e-06 1.7939119e-06)
(1.9286623e-06 5.7381974e-06 1.0410859e-06)
(4.7237748e-06 2.2426727e-05 4.0501377e-06)
(3.8664359e-06 1.5552003e-05 2.5692881e-06)
(2.9712634e-06 1.0932467e-05 1.6105598e-06)
(2.2126965e-06 7.6547593e-06 9.775942e-07)
(1.6113537e-06 5.2770955e-06 5.4136151e-07)
(4.0989797e-06 2.1770378e-05 -7.8599147e-07)
(3.4093606e-06 1.5142549e-05 -2.7654629e-07)
(2.6689975e-06 1.0613473e-05 -4.8910305e-08)
(2.0210422e-06 7.3805457e-06 -1.085397e-08)
(1.499751e-06 5.1166328e-06 -6.5925541e-08)
(5.53399e-06 2.3654587e-05 -5.4562178e-06)
(4.0837084e-06 1.6289085e-05 -2.9999607e-06)
(3.0113813e-06 1.1198159e-05 -1.6292595e-06)
(2.2061725e-06 7.6377441e-06 -8.8558961e-07)
(1.6280457e-06 5.3176174e-06 -4.6130076e-07)
)
;
    }
    procBoundary12to15
    {
        type            processor;
        value           nonuniform List<vector> 
25
(
(3.3937277e-06 3.2723034e-06 4.9797562e-07)
(4.4041491e-06 1.6859474e-06 4.8637886e-08)
(4.6964308e-06 -1.5658216e-07 -3.675773e-07)
(4.1949132e-06 -1.9805001e-06 -7.0460081e-07)
(3.0090107e-06 -3.5156656e-06 -9.2769867e-07)
(2.9880331e-06 3.0094876e-06 3.0810666e-07)
(4.0208259e-06 1.6430917e-06 -6.4572527e-09)
(4.3531018e-06 1.0626055e-08 -3.2193414e-07)
(3.9358713e-06 -1.6232429e-06 -5.8395952e-07)
(2.883788e-06 -3.0093353e-06 -7.61304e-07)
(2.7207088e-06 2.8224299e-06 1.2194695e-07)
(3.7741083e-06 1.6128504e-06 -2.5092764e-08)
(4.1189285e-06 1.3214206e-07 -1.9325653e-07)
(3.7555433e-06 -1.3653347e-06 -3.42449e-07)
(2.780742e-06 -2.6462197e-06 -4.4356753e-07)
(2.6069107e-06 2.7231027e-06 -1.0550274e-07)
(3.7056225e-06 1.5995669e-06 -7.0296785e-08)
(4.0357456e-06 1.9434743e-07 -6.0555067e-08)
(3.6855603e-06 -1.2380233e-06 -6.9957527e-08)
(2.7172435e-06 -2.4656464e-06 -7.6113784e-08)
(2.6207441e-06 2.694817e-06 -1.2957706e-07)
(3.8190559e-06 1.5764125e-06 -3.6005091e-08)
(4.1192678e-06 1.7320455e-07 7.1178242e-08)
(3.7399846e-06 -1.2575584e-06 1.5017803e-07)
(2.7067279e-06 -2.4749782e-06 1.9105759e-07)
)
;
    }
    procBoundary12to21
    {
        type            processor;
        value           nonuniform List<vector> 
25
(
(2.0046014e-05 2.0665112e-05 -4.2781209e-06)
(2.5238114e-05 1.0437512e-05 -2.6666739e-07)
(2.512778e-05 4.960626e-07 2.5127742e-06)
(2.1412724e-05 -6.7895988e-06 4.0464009e-06)
(1.5957458e-05 -1.1918797e-05 5.6056143e-06)
(1.3178672e-05 1.4327431e-05 -2.7010212e-06)
(1.7198135e-05 7.7297791e-06 -3.0463608e-07)
(1.7793187e-05 8.8073224e-07 1.5582346e-06)
(1.5752762e-05 -4.8908024e-06 2.8597638e-06)
(1.2001239e-05 -9.2247286e-06 3.9622495e-06)
(8.8062856e-06 9.8234131e-06 -1.6740633e-06)
(1.1791416e-05 5.5088603e-06 -2.4651334e-07)
(1.2507199e-05 7.7754686e-07 9.3866754e-07)
(1.1307263e-05 -3.5284845e-06 1.8517308e-06)
(8.6635899e-06 -6.9880585e-06 2.5652182e-06)
(5.959688e-06 6.6328879e-06 -1.0322972e-06)
(8.1522688e-06 3.797737e-06 -1.9186789e-07)
(8.7558423e-06 5.473123e-07 5.433171e-07)
(7.9871568e-06 -2.5726192e-06 1.1378677e-06)
(6.0626085e-06 -5.1737209e-06 1.5842506e-06)
(4.0555181e-06 4.5818338e-06 -6.7302638e-07)
(5.7058399e-06 2.61344e-06 -1.8368205e-07)
(6.1368427e-06 3.3594277e-07 2.6924609e-07)
(5.5862296e-06 -1.9204735e-06 6.5817649e-07)
(4.129874e-06 -3.8457744e-06 9.5694648e-07)
)
;
    }
}


// ************************************************************************* //
