/*--------------------------------*- C++ -*----------------------------------*\
| =========                 |                                                 |
| \\      /  F ield         | OpenFOAM: The Open Source CFD Toolbox           |
|  \\    /   O peration     | Version:  3.0.1                                 |
|   \\  /    A nd           | Web:      www.OpenFOAM.org                      |
|    \\/     M anipulation  |                                                 |
\*---------------------------------------------------------------------------*/
FoamFile
{
    version     2.0;
    format      ascii;
    class       surfaceScalarField;
    location    "0.2";
    object      phi;
}
// * * * * * * * * * * * * * * * * * * * * * * * * * * * * * * * * * * * * * //

dimensions      [0 3 -1 0 0 0 0];

internalField   nonuniform List<scalar> 
300
(
0.0030862476
-0.0087216757
-0.0062556733
-0.0028035093
-0.010118735
-0.0066692275
-0.0087101478
-0.0095375779
-0.0053454881
-0.012733951
-0.0068784648
-0.0023168183
-0.0029111169
0.0014171771
0.0016890241
-0.0063412265
-0.0036528054
-0.0022239148
-0.0070830606
-0.0037149872
-0.0060505182
-0.0065409559
-0.0028953484
-0.0087402887
-0.0046697095
-0.0012345937
-0.0018665931
0.0008062212
0.00094701128
-0.0044871416
-0.0021092083
-0.0016815124
-0.0048976014
-0.0020669023
-0.0041769113
-0.0044466795
-0.0015677867
-0.0059228216
-0.0031232223
-0.0006405787
-0.0011779549
0.00048162316
0.00053670092
-0.0031153381
-0.0012026323
-0.0012297366
-0.0033580916
-0.0011502084
-0.0028516259
-0.0030002923
-0.00084682142
-0.0039711799
-0.0020698029
-0.00032769516
-0.00074402515
0.00027782263
0.00029491062
-0.00068509651
-0.0008712328
-0.00063935803
-0.0019196367
-0.00046237157
-0.002644717
-0.00018158262
0.00014050177
0.0026792909
-0.0060831319
-0.0039227905
-0.0014797892
-0.0071549596
-0.0042978859
-0.0056855024
-0.0070825067
-0.0033047213
-0.0089954861
-0.0057938096
-0.00122932
-0.0035168107
0.001090611
0.0016289797
-0.0047751123
-0.002382637
-0.0014045566
-0.0054329583
-0.0024307674
-0.0043908513
-0.0052120136
-0.0018352056
-0.006698269
-0.0040739641
-0.0006967504
-0.0021883857
0.00060836201
0.00098928332
-0.0035799823
-0.0014188879
-0.0011824323
-0.0039806797
-0.0013817838
-0.0032496643
-0.0037249554
-0.0010181015
-0.0048014397
-0.0028095
-0.00037904856
-0.0013808825
0.00034936772
0.00058989428
-0.0025997866
-0.00082956016
-0.00092595802
-0.0028469841
-0.00078547858
-0.0023321394
-0.0026156179
-0.00056411501
-0.0033668333
-0.001923493
-0.00020600238
-0.0008804121
0.00020162079
0.00034364707
-0.00047630142
-0.00069388531
-0.00044002143
-0.0016386894
-0.00031104553
-0.002323069
-0.00011048742
0.00011234017
0.0022971588
-0.0045395664
-0.0014398909
-0.0004953917
-0.0052624891
-0.0017076366
-0.0036227461
-0.005600705
-0.0011300018
-0.00667154
-0.0052504447
-8.74694e-05
-0.0039906092
0.00082407379
0.0015743924
-0.0038049
-0.00095099125
-0.00081078381
-0.0043781583
-0.00097312974
-0.003255852
-0.0043902815
-0.00063594839
-0.0053912831
-0.0037511041
-8.0453908e-05
-0.0024439059
0.00043240039
0.0010227093
-0.002990096
-0.0005944314
-0.00081906457
-0.0033802194
-0.0005660473
-0.0026112441
-0.0032696454
-0.00036882256
-0.004073752
-0.0026345546
-6.6423288e-05
-0.0015270969
0.00022202972
0.00063405307
-0.0022462406
-0.00036260952
-0.00070724688
-0.0025014157
-0.00033273803
-0.001973557
-0.0023599194
-0.00021699472
-0.0029614445
-0.0018263547
-4.753817e-05
-0.00096822796
0.00012033657
0.00037977162
-0.00020893435
-0.00056497186
-0.00019133615
-0.0014385129
-0.00012616852
-0.0020974604
-2.8347447e-05
7.3000328e-05
0.0020234941
-0.0040383334
0.00076412305
7.6576547e-05
-0.0045122823
0.00083618043
-0.0025924357
-0.00510235
0.0011138651
-0.0057739362
-0.0052418561
0.0011292181
-0.0043806844
0.00067691808
0.0015507659
-0.0034710324
0.00041646375
-0.00047543137
-0.0039700751
0.00049029053
-0.0027044961
-0.0041227966
0.00057854195
-0.0048846313
-0.003737116
0.00053642853
-0.0026546521
0.00028601454
0.0010507971
-0.0027600248
0.00021848966
-0.00062256185
-0.0031469131
0.00026912098
-0.0023103358
-0.0031177986
0.000297506
-0.003790119
-0.0026158421
0.00025465669
-0.0016291365
0.00010806087
0.00066407804
-0.0020928922
0.00011712049
-0.00059185234
-0.0023601303
0.00014182968
-0.0018047224
-0.0022691392
0.00015454873
-0.0028043164
-0.0018072813
0.00012909714
-0.0010157449
3.9852292e-05
0.00039731246
7.4169895e-05
-0.00049992321
7.9673604e-05
-0.0013408809
7.2759301e-05
-0.0019960698
5.6036395e-05
1.6127867e-05
0.0020885855
-0.004435766
0.000347574
-0.0048726875
-0.0025902146
-0.0056440261
-0.0062477984
-0.0058363187
-0.0047778015
0.0016232077
-0.003674495
-0.00038994661
-0.0041943786
-0.0027515044
-0.0044053995
-0.0051490475
-0.0040207021
-0.0028360436
0.0011006966
-0.0028612977
-0.0005953519
-0.0032752026
-0.0023551696
-0.0032614524
-0.0039536935
-0.0027428
-0.0016991694
0.00068732028
-0.0021378441
-0.00057992696
-0.0024226487
-0.0018309101
-0.0023516511
-0.00289164
-0.0018812262
-0.0010404373
0.00040270836
-0.00050728643
-0.0013578838
-0.0020361961
)
;

boundaryField
{
    movingWall
    {
        type            calculated;
        value           nonuniform 0();
    }
    CPLReceiveMD
    {
        type            calculated;
        value           nonuniform 0();
    }
    streamwiseIn
    {
        type            cyclic;
        value           nonuniform 0();
    }
    streamwiseOut
    {
        type            cyclic;
        value           nonuniform 0();
    }
    front
    {
        type            cyclic;
        value           nonuniform 0();
    }
    back
    {
        type            cyclic;
        value           nonuniform 0();
    }
    procBoundary13to4
    {
        type            processor;
        value           nonuniform List<scalar> 
25
(
0.0077757117
0.0084757749
0.007191849
0.0034091544
-0.0017609691
0.0043891681
0.0045517144
0.0036908904
0.001692134
-0.00092354608
0.0024634992
0.0024534875
0.0019079224
0.0008352495
-0.00051212183
0.0013742707
0.0013250854
0.00099057208
0.00040103
-0.00031456433
0.0007578522
0.00070747966
0.00050178064
0.00016269383
-0.00024744842
)
;
    }
    procBoundary13to10
    {
        type            processor;
        value           nonuniform List<scalar> 
25
(
0.011600832
0.014215256
0.013708196
0.0098369737
0.0044915176
0.0072408927
0.0088983109
0.0091972442
0.0079660571
0.0056839023
0.0048843533
0.0054610417
0.0065252206
0.0071511731
0.0066568217
0.0042595942
0.003953272
0.0055427001
0.007186121
0.0073504832
0.004938834
0.0042322722
0.0065576931
0.0083235705
0.0079718452
)
;
    }
    procBoundary13to12
    {
        type            processor;
        value           nonuniform List<scalar> 
25
(
-0.0074172369
-0.0048845726
-0.0032226199
-0.0021294444
-0.0014083695
-0.0060299682
-0.004218214
-0.0029048441
-0.0019761928
-0.0013277037
-0.0049401863
-0.0037296243
-0.0026818316
-0.0018762663
-0.0012837279
-0.0042927875
-0.0034729403
-0.0025798177
-0.001837777
-0.0012814255
-0.0043081598
-0.0035169066
-0.0026118025
-0.0018653243
-0.0013202069
)
;
    }
    procBoundary13to14
    {
        type            processor;
        value           nonuniform List<scalar> 
25
(
-0.013934196
-0.0095920514
-0.0064981866
-0.0043772143
-0.0029781832
-0.010795022
-0.0078489401
-0.0055328153
-0.0038300912
-0.0026435563
-0.0090854764
-0.0068140991
-0.0049244739
-0.0034791843
-0.0024276426
-0.0087805449
-0.0065390762
-0.0047257459
-0.0033536225
-0.0023476676
-0.0096874447
-0.0069463909
-0.0049016844
-0.0034239462
-0.0023762772
)
;
    }
    procBoundary13to16
    {
        type            processor;
        value           nonuniform List<scalar> 
25
(
-0.0021594274
-0.0022926121
-0.0020395096
-0.0014244647
-0.00056597044
-0.0018469955
-0.0019892283
-0.0018034059
-0.0013058637
-0.00058713424
-0.0016441585
-0.001790062
-0.0016544804
-0.0012425019
-0.00061236356
-0.0015695987
-0.0017121283
-0.0016011448
-0.0012292315
-0.0006336105
-0.001625044
-0.0017687381
-0.0016502487
-0.0012610971
-0.00062970375
)
;
    }
    procBoundary13to22
    {
        type            processor;
        value           nonuniform List<scalar> 
25
(
0.002587336
0.0033709586
0.0032482456
0.0022349742
0.00059914134
0.0015861748
0.0018259
0.0016757605
0.0010950067
0.00020840766
0.00095978716
0.0010152633
0.00088698223
0.0005454856
8.2723211e-05
0.00055097863
0.00057100442
0.00047633409
0.00027508789
2.5594498e-05
0.00027440436
0.00029948058
0.00025084923
0.0001332721
-1.0138581e-05
)
;
    }
}


// ************************************************************************* //
