/*--------------------------------*- C++ -*----------------------------------*\
| =========                 |                                                 |
| \\      /  F ield         | OpenFOAM: The Open Source CFD Toolbox           |
|  \\    /   O peration     | Version:  3.0.1                                 |
|   \\  /    A nd           | Web:      www.OpenFOAM.org                      |
|    \\/     M anipulation  |                                                 |
\*---------------------------------------------------------------------------*/
FoamFile
{
    version     2.0;
    format      ascii;
    class       volVectorField;
    location    "0.2";
    object      U;
}
// * * * * * * * * * * * * * * * * * * * * * * * * * * * * * * * * * * * * * //

dimensions      [0 1 -1 0 0 0 0];

internalField   nonuniform List<vector> 
125
(
(1.3133969e-05 -2.5394232e-05 -1.7569223e-05)
(3.5671028e-07 -3.0413286e-05 -1.8949682e-05)
(-1.438326e-05 -2.9061638e-05 -1.5682788e-05)
(-2.6748504e-05 -2.0904574e-05 -7.1653159e-06)
(-3.3162803e-05 -9.2420877e-06 3.9635162e-06)
(8.2214203e-06 -1.8828361e-05 -1.0064588e-05)
(-6.631602e-07 -2.1500992e-05 -1.0341156e-05)
(-1.0333375e-05 -2.0097356e-05 -8.2391281e-06)
(-1.8459709e-05 -1.4433855e-05 -3.6637016e-06)
(-2.2885605e-05 -5.9615004e-06 2.1568736e-06)
(5.2167422e-06 -1.3535282e-05 -5.721575e-06)
(-9.1228421e-07 -1.4975039e-05 -5.654442e-06)
(-7.3161231e-06 -1.3733591e-05 -4.3481102e-06)
(-1.261265e-05 -9.7389944e-06 -1.8476821e-06)
(-1.551768e-05 -3.7978157e-06 1.238574e-06)
(3.3371041e-06 -9.5026469e-06 -3.2258185e-06)
(-8.6146996e-07 -1.031902e-05 -3.0966618e-06)
(-5.0973302e-06 -9.307498e-06 -2.2983749e-06)
(-8.5239333e-06 -6.4880838e-06 -9.1210152e-07)
(-1.0433493e-05 -2.3957332e-06 7.3734626e-07)
(2.1324439e-06 -6.593217e-06 -1.8093412e-06)
(-7.1713538e-07 -7.0629007e-06 -1.6852223e-06)
(-3.4851874e-06 -6.2986052e-06 -1.2064157e-06)
(-5.7008851e-06 -4.3651829e-06 -4.3139118e-07)
(-7.0262969e-06 -1.6328017e-06 4.8428711e-07)
(1.0889512e-05 -1.6721236e-05 -1.2738504e-05)
(1.5036453e-06 -2.0112784e-05 -1.3725752e-05)
(-8.9411954e-06 -2.0372308e-05 -1.0836167e-05)
(-1.8296957e-05 -1.7205374e-05 -4.4619275e-06)
(-2.4652633e-05 -1.1493043e-05 3.1110287e-06)
(7.3129617e-06 -1.3631661e-05 -7.5498998e-06)
(2.8625275e-07 -1.5742967e-05 -7.6935524e-06)
(-7.2325376e-06 -1.5371207e-05 -5.9255362e-06)
(-1.3832378e-05 -1.2334115e-05 -2.4273925e-06)
(-1.8161261e-05 -7.1237361e-06 1.7585549e-06)
(4.8719631e-06 -1.0469277e-05 -4.4114777e-06)
(-2.3590095e-07 -1.1768029e-05 -4.3175273e-06)
(-5.5323438e-06 -1.1171095e-05 -3.2388142e-06)
(-1.0049487e-05 -8.6031118e-06 -1.2798858e-06)
(-1.290838e-05 -4.4557604e-06 1.0351013e-06)
(3.2114494e-06 -7.7267658e-06 -2.542494e-06)
(-4.1556522e-07 -8.5344053e-06 -2.421481e-06)
(-4.0676209e-06 -7.9252103e-06 -1.767911e-06)
(-7.1170434e-06 -5.9144347e-06 -6.6962284e-07)
(-8.9924877e-06 -2.8222483e-06 5.9751069e-07)
(2.0922075e-06 -5.5587912e-06 -1.457309e-06)
(-4.3434544e-07 -6.0449039e-06 -1.3508182e-06)
(-2.9123733e-06 -5.5229735e-06 -9.6798413e-07)
(-4.9465251e-06 -4.0348631e-06 -3.6660128e-07)
(-6.2047531e-06 -1.8310272e-06 3.1520354e-07)
(9.0473862e-06 -1.186658e-05 -6.6958986e-06)
(2.2590461e-06 -1.3802044e-05 -7.5167979e-06)
(-5.119436e-06 -1.5255406e-05 -5.5626621e-06)
(-1.2801308e-05 -1.5509066e-05 -1.6722734e-06)
(-1.9645488e-05 -1.3303596e-05 2.3743165e-06)
(6.6326229e-06 -1.0501336e-05 -4.1647209e-06)
(9.6120334e-07 -1.2092768e-05 -4.2631912e-06)
(-5.0672148e-06 -1.2500002e-05 -3.0985165e-06)
(-1.0775618e-05 -1.1251813e-05 -9.8236565e-07)
(-1.5234735e-05 -8.0374279e-06 1.2934066e-06)
(4.6344152e-06 -8.5278758e-06 -2.5161081e-06)
(2.6037925e-07 -9.7029677e-06 -2.4394647e-06)
(-4.2784817e-06 -9.575966e-06 -1.7384055e-06)
(-8.3387343e-06 -7.9812248e-06 -5.6132657e-07)
(-1.1236492e-05 -4.95886e-06 7.1081656e-07)
(3.1415828e-06 -6.5484782e-06 -1.4900766e-06)
(-8.6886996e-08 -7.3523105e-06 -1.3976125e-06)
(-3.3454721e-06 -7.0366679e-06 -9.795297e-07)
(-6.1585116e-06 -5.5747993e-06 -3.1917398e-07)
(-8.0441376e-06 -3.115631e-06 4.0059144e-07)
(2.0822816e-06 -4.8629513e-06 -8.5623801e-07)
(-2.2781056e-07 -5.3640286e-06 -7.8909798e-07)
(-2.5009705e-06 -5.0172881e-06 -5.4649417e-07)
(-4.4176974e-06 -3.8343863e-06 -1.7396284e-07)
(-5.6562488e-06 -1.9726405e-06 2.3125639e-07)
(7.8928568e-06 -1.0474374e-05 -8.2470812e-07)
(2.6368817e-06 -1.1209522e-05 -1.0858425e-06)
(-3.096671e-06 -1.3500761e-05 -1.9748405e-08)
(-1.0359979e-05 -1.5542923e-05 1.3019226e-06)
(-1.8132163e-05 -1.4655522e-05 1.8750368e-06)
(6.2813111e-06 -9.4518704e-06 -6.6103824e-07)
(1.3524572e-06 -1.0665634e-05 -6.0018795e-07)
(-3.9517122e-06 -1.154695e-05 -6.990778e-08)
(-9.440455e-06 -1.1223168e-05 5.7143943e-07)
(-1.4250577e-05 -8.787236e-06 8.9896506e-07)
(4.5415736e-06 -7.794633e-06 -4.6662618e-07)
(5.4180156e-07 -8.90245e-06 -3.6905876e-07)
(-3.6542057e-06 -9.0521084e-06 -8.7823355e-08)
(-7.6002649e-06 -7.9399201e-06 2.3622503e-07)
(-1.0627972e-05 -5.3485756e-06 4.132613e-07)
(3.130877e-06 -6.0668958e-06 -3.0333676e-07)
(9.4981636e-08 -6.8840385e-06 -2.3747419e-07)
(-2.9891824e-06 -6.7332989e-06 -7.7330701e-08)
(-5.7369223e-06 -5.527071e-06 1.0243041e-07)
(-7.6777398e-06 -3.3018085e-06 2.0070794e-07)
(2.101224e-06 -4.5777081e-06 -1.6713882e-07)
(-1.246016e-07 -5.0898261e-06 -1.3887729e-07)
(-2.2972381e-06 -4.8368103e-06 -6.6535435e-08)
(-4.1687745e-06 -3.7934758e-06 3.476188e-08)
(-5.4298346e-06 -2.0582514e-06 1.1158689e-07)
(7.9903793e-06 -1.1741159e-05 4.2090237e-06)
(3.0640059e-06 -1.2177619e-05 5.2825997e-06)
(-2.731671e-06 -1.5381491e-05 5.4802471e-06)
(-1.0906523e-05 -1.7698679e-05 4.2309253e-06)
(-1.9833037e-05 -1.5908552e-05 1.6116798e-06)
(6.42694e-06 -1.0143254e-05 2.5107903e-06)
(1.5523338e-06 -1.1375984e-05 2.9042294e-06)
(-3.8955875e-06 -1.2568077e-05 2.8291944e-06)
(-9.8067447e-06 -1.2317511e-05 2.0507752e-06)
(-1.507388e-05 -9.4992034e-06 6.2662663e-07)
(4.644055e-06 -8.1701743e-06 1.4762235e-06)
(6.3918207e-07 -9.3402539e-06 1.6094807e-06)
(-3.6731979e-06 -9.583389e-06 1.4855669e-06)
(-7.8376496e-06 -8.4502338e-06 1.005368e-06)
(-1.1031847e-05 -5.6571171e-06 2.4260951e-07)
(3.1945684e-06 -6.2489908e-06 8.3830837e-07)
(1.3911906e-07 -7.1221291e-06 8.9270126e-07)
(-3.0055675e-06 -7.01538e-06 7.9059737e-07)
(-5.880473e-06 -5.7762624e-06 5.0738761e-07)
(-7.8775814e-06 -3.4173054e-06 8.3522545e-08)
(2.1568756e-06 -4.7035861e-06 4.3678419e-07)
(-1.2720717e-07 -5.2384838e-06 4.7493129e-07)
(-2.3273313e-06 -5.0004059e-06 4.0590893e-07)
(-4.2395751e-06 -3.924269e-06 2.3820278e-07)
(-5.5156863e-06 -2.0829446e-06 8.4903071e-09)
)
;

boundaryField
{
    movingWall
    {
        type            fixedValue;
        value           nonuniform 0();
    }
    CPLReceiveMD
    {
        type            fixedValue;
        value           nonuniform 0();
    }
    streamwiseIn
    {
        type            cyclic;
    }
    streamwiseOut
    {
        type            cyclic;
    }
    front
    {
        type            cyclic;
    }
    back
    {
        type            cyclic;
    }
    procBoundary13to4
    {
        type            processor;
        value           nonuniform List<vector> 
25
(
(1.6112718e-05 -3.6873764e-05 -1.9420046e-05)
(-3.8278956e-07 -4.4461323e-05 -2.1692374e-05)
(-2.0725561e-05 -4.1863839e-05 -1.9100475e-05)
(-3.7943261e-05 -2.7135198e-05 -9.5745624e-06)
(-4.5181277e-05 -5.9484615e-06 4.6485505e-06)
(9.4087933e-06 -2.5479309e-05 -1.0840495e-05)
(-1.5392072e-06 -2.9038206e-05 -1.1441821e-05)
(-1.3909992e-05 -2.6705884e-05 -9.4780411e-06)
(-2.4228379e-05 -1.7651749e-05 -4.4805328e-06)
(-2.910909e-05 -4.3987936e-06 2.3655141e-06)
(5.6753988e-06 -1.7308047e-05 -6.014679e-06)
(-1.6093656e-06 -1.9012523e-05 -6.0660399e-06)
(-9.3391036e-06 -1.7111848e-05 -4.7891831e-06)
(-1.5636171e-05 -1.1354712e-05 -2.1475373e-06)
(-1.877107e-05 -3.036233e-06 1.2670466e-06)
(3.4919307e-06 -1.1639e-05 -3.3372658e-06)
(-1.3430089e-06 -1.2503625e-05 -3.2423598e-06)
(-6.2521811e-06 -1.1066905e-05 -2.462477e-06)
(-1.0152764e-05 -7.3307256e-06 -1.0298027e-06)
(-1.2132017e-05 -2.0679614e-06 7.5752717e-07)
(2.140396e-06 -7.7486089e-06 -1.859822e-06)
(-1.0372709e-06 -8.2029022e-06 -1.7553116e-06)
(-4.1662044e-06 -7.1558065e-06 -1.2767581e-06)
(-6.6372279e-06 -4.6975168e-06 -4.6036052e-07)
(-7.8311369e-06 -1.301782e-06 5.3094537e-07)
)
;
    }
    procBoundary13to10
    {
        type            processor;
        value           nonuniform List<vector> 
25
(
(2.1424358e-05 -3.2227639e-05 -3.0217116e-05)
(3.0042465e-06 -4.1928816e-05 -3.4689695e-05)
(-1.9842085e-05 -4.06126e-05 -2.973066e-05)
(-3.8279257e-05 -2.8508784e-05 -1.3593525e-05)
(-4.6567416e-05 -1.4220023e-05 7.701454e-06)
(1.6220193e-05 -1.8149481e-05 -2.1077552e-05)
(3.9373254e-06 -2.3731713e-05 -2.4304795e-05)
(-1.0139947e-05 -2.5322513e-05 -1.9731769e-05)
(-2.2711643e-05 -2.269361e-05 -7.8229017e-06)
(-3.1496766e-05 -1.8532383e-05 5.8200631e-06)
(1.1671816e-05 -1.0868e-05 -1.0411583e-05)
(4.3500291e-06 -1.2198551e-05 -1.3166454e-05)
(-3.3601926e-06 -1.6460529e-05 -9.9700634e-06)
(-1.2727426e-05 -2.0558316e-05 -2.6448178e-06)
(-2.3112984e-05 -2.2567845e-05 4.4558863e-06)
(8.3160237e-06 -9.2820605e-06 -7.8645911e-07)
(4.3788445e-06 -6.6725468e-06 -2.224613e-06)
(3.8168913e-07 -1.31276e-05 5.6177557e-08)
(-8.2856936e-06 -2.0778083e-05 2.7610525e-06)
(-2.094704e-05 -2.5485491e-05 3.5039209e-06)
(7.5417513e-06 -1.187327e-05 6.8812498e-06)
(5.1926659e-06 -6.8919098e-06 9.3077369e-06)
(1.625473e-06 -1.6427369e-05 1.0532935e-05)
(-9.2796831e-06 -2.4834343e-05 8.6187365e-06)
(-2.4474942e-05 -2.7267564e-05 3.9395316e-06)
)
;
    }
    procBoundary13to12
    {
        type            processor;
        value           nonuniform List<vector> 
25
(
(2.1825537e-05 -1.7210349e-05 -1.3726476e-05)
(1.4930009e-05 -1.3583766e-05 -8.2453244e-06)
(1.0133294e-05 -1.0090723e-05 -4.8510064e-06)
(6.8253502e-06 -7.2347214e-06 -2.8161805e-06)
(4.5608406e-06 -5.0591994e-06 -1.6370338e-06)
(1.8056255e-05 -1.1205553e-05 -9.6391701e-06)
(1.2924237e-05 -9.725418e-06 -6.1047551e-06)
(9.0723721e-06 -7.6665165e-06 -3.7352004e-06)
(6.265641e-06 -5.7546497e-06 -2.2259597e-06)
(4.263224e-06 -4.1957536e-06 -1.300656e-06)
(1.5306313e-05 -8.7628506e-06 -4.5201428e-06)
(1.1521857e-05 -7.6797967e-06 -3.2315406e-06)
(8.3388874e-06 -6.2119276e-06 -2.1090752e-06)
(5.8814404e-06 -4.8001769e-06 -1.3170401e-06)
(4.0668516e-06 -3.5945438e-06 -7.9811452e-07)
(1.3980979e-05 -9.174809e-06 -2.8835552e-08)
(1.0880368e-05 -7.3143505e-06 -3.9450507e-07)
(8.022082e-06 -5.752016e-06 -3.7869852e-07)
(5.7207643e-06 -4.443689e-06 -2.9045977e-07)
(3.9944518e-06 -3.322281e-06 -2.134713e-07)
(1.4201958e-05 -1.1062808e-05 3.0896647e-06)
(1.1063603e-05 -8.0296597e-06 1.9505935e-06)
(8.1384304e-06 -6.1078823e-06 1.1792866e-06)
(5.7977888e-06 -4.6349497e-06 7.1455102e-07)
(4.0457784e-06 -3.3801978e-06 4.4925468e-07)
)
;
    }
    procBoundary13to14
    {
        type            processor;
        value           nonuniform List<vector> 
25
(
(-3.3295291e-05 2.777238e-06 1.3363328e-05)
(-2.2941483e-05 3.2112689e-06 7.2841274e-06)
(-1.5508675e-05 2.7131184e-06 4.0150073e-06)
(-1.0419932e-05 2.0032992e-06 2.227428e-06)
(-7.0265393e-06 1.4743425e-06 1.1949926e-06)
(-2.7293452e-05 -3.8698693e-06 9.0553875e-06)
(-1.9457352e-05 -5.8986167e-07 5.2234784e-06)
(-1.3553333e-05 5.6566203e-07 3.0013024e-06)
(-9.315171e-06 7.8919268e-07 1.7197324e-06)
(-6.3696333e-06 7.4206051e-07 1.0034469e-06)
(-2.4106476e-05 -7.6308157e-06 4.8481973e-06)
(-1.7437024e-05 -2.8428163e-06 2.9283183e-06)
(-1.2337779e-05 -7.9062766e-07 1.7190815e-06)
(-8.6021563e-06 5.4436957e-09 9.9557389e-07)
(-5.9429118e-06 2.8313839e-07 6.0095574e-07)
(-2.3845315e-05 -8.8464595e-06 1.1143734e-06)
(-1.7031791e-05 -3.7189775e-06 7.3229371e-07)
(-1.2000009e-05 -1.3670823e-06 4.4086954e-07)
(-8.3732827e-06 -3.2893311e-07 2.6898658e-07)
(-5.793223e-06 9.2653897e-08 1.7532439e-07)
(-2.6150449e-05 -8.2976156e-06 -1.8303958e-06)
(-1.8107322e-05 -3.5163201e-06 -1.2115135e-06)
(-1.2510059e-05 -1.2539348e-06 -8.0302817e-07)
(-8.6151988e-06 -2.6010145e-07 -5.0107124e-07)
(-5.9041261e-06 1.0969133e-07 -3.0307187e-07)
)
;
    }
    procBoundary13to16
    {
        type            processor;
        value           nonuniform List<vector> 
25
(
(1.3334028e-06 -4.5233725e-06 -1.0360009e-06)
(-5.6685815e-07 -4.7716697e-06 -9.3866351e-07)
(-2.3996124e-06 -4.2097283e-06 -6.6554181e-07)
(-3.8581299e-06 -2.900864e-06 -2.4944773e-07)
(-4.5939675e-06 -1.0927186e-06 2.0810109e-07)
(1.3622991e-06 -3.9198466e-06 -8.1222824e-07)
(-3.797475e-07 -4.1962209e-06 -7.2260889e-07)
(-2.0575801e-06 -3.7752405e-06 -4.8659387e-07)
(-3.4250971e-06 -2.7025242e-06 -1.3882626e-07)
(-4.2155641e-06 -1.1649414e-06 2.5767195e-07)
(1.3720979e-06 -3.5086756e-06 -5.0899344e-07)
(-2.4122377e-07 -3.8046596e-06 -4.4253466e-07)
(-1.8158298e-06 -3.4876416e-06 -2.9336655e-07)
(-3.1138641e-06 -2.5833818e-06 -7.7786697e-08)
(-3.9266129e-06 -1.2250187e-06 1.7336718e-07)
(1.3633319e-06 -3.3366757e-06 -1.4397162e-07)
(-1.6412061e-07 -3.6382416e-06 -1.1192938e-07)
(-1.6928321e-06 -3.3739315e-06 -6.0448542e-08)
(-2.9583634e-06 -2.5488819e-06 1.2547723e-08)
(-3.7916101e-06 -1.2660165e-06 9.0403843e-08)
(1.3362823e-06 -3.4180259e-06 3.2219942e-07)
(-1.577007e-07 -3.7264133e-06 2.9106514e-07)
(-1.6913527e-06 -3.4509535e-06 2.198058e-07)
(-2.9630117e-06 -2.6005064e-06 1.1256487e-07)
(-3.8436211e-06 -1.2688225e-06 -3.8189128e-08)
)
;
    }
    procBoundary13to22
    {
        type            processor;
        value           nonuniform List<vector> 
25
(
(1.0085792e-05 -1.4844834e-05 8.2088992e-06)
(3.9081052e-06 -1.7613029e-05 1.0309923e-05)
(-4.1483452e-06 -2.1204502e-05 9.6257079e-06)
(-1.4228546e-05 -2.2110884e-05 6.2188513e-06)
(-2.4193483e-05 -1.7968427e-05 1.1318967e-06)
(7.234947e-06 -1.2184671e-05 5.1309646e-06)
(1.6708613e-06 -1.4338753e-05 5.7372835e-06)
(-4.8051663e-06 -1.5541631e-05 5.0666983e-06)
(-1.1643023e-05 -1.4448725e-05 3.0371478e-06)
(-1.7512866e-05 -1.0156306e-05 1.4655094e-07)
(4.9717677e-06 -9.4671149e-06 3.1248324e-06)
(5.5114499e-07 -1.0913978e-05 3.2567477e-06)
(-4.2583183e-06 -1.1090705e-05 2.7263943e-06)
(-8.8432222e-06 -9.4833077e-06 1.508882e-06)
(-1.2436369e-05 -5.8916797e-06 -8.0999258e-08)
(3.3090273e-06 -7.1063351e-06 1.8472896e-06)
(4.7270643e-08 -8.0185879e-06 1.856861e-06)
(-3.374496e-06 -7.8129568e-06 1.481919e-06)
(-6.4439971e-06 -6.2942362e-06 7.5814137e-07)
(-8.6861986e-06 -3.5359277e-06 -1.3539267e-07)
(2.1269006e-06 -5.093817e-06 1.0367326e-06)
(-1.5547686e-07 -5.6914622e-06 1.037843e-06)
(-2.5339667e-06 -5.4076019e-06 8.247046e-07)
(-4.5661931e-06 -4.1882985e-06 3.9652622e-07)
(-5.9711092e-06 -2.1799631e-06 -1.3555597e-07)
)
;
    }
}


// ************************************************************************* //
