/*--------------------------------*- C++ -*----------------------------------*\
| =========                 |                                                 |
| \\      /  F ield         | OpenFOAM: The Open Source CFD Toolbox           |
|  \\    /   O peration     | Version:  3.0.1                                 |
|   \\  /    A nd           | Web:      www.OpenFOAM.org                      |
|    \\/     M anipulation  |                                                 |
\*---------------------------------------------------------------------------*/
FoamFile
{
    version     2.0;
    format      ascii;
    class       surfaceScalarField;
    location    "0.2";
    object      phi;
}
// * * * * * * * * * * * * * * * * * * * * * * * * * * * * * * * * * * * * * //

dimensions      [0 3 -1 0 0 0 0];

internalField   nonuniform List<scalar> 
300
(
0.0028818459
-0.005442562
0.0039732578
0.00022478721
-0.0064524494
0.0048538488
-0.0036130417
-0.0072346144
0.0044197275
-0.0079164603
-0.0069947033
0.0027038345
-0.0051937026
0.00026979516
0.001864421
-0.0043031794
0.0025157208
-0.00053980064
-0.0050105324
0.0027557531
-0.0033353273
-0.0051997894
0.0023652893
-0.0060575948
-0.0045795238
0.0013211621
-0.0029722777
-0.00010406654
0.0011566108
-0.0032706864
0.0015386505
-0.00072332593
-0.0037207174
0.0015866953
-0.0026978915
-0.0036748882
0.0012892682
-0.004438753
-0.0030174206
0.00065612978
-0.0017608633
-0.00015267587
0.00070704102
-0.0024146333
0.00092611345
-0.00067435548
-0.0026948725
0.00091298355
-0.0020326576
-0.0025783986
0.00070697513
-0.0031337532
-0.0020249795
0.00032887767
-0.0010783315
-0.00013608758
0.00042791173
0.00055486106
-0.00055565298
0.00053021135
-0.0014754647
0.00040762567
-0.0021799361
0.00018244684
-9.944285e-05
0.0037667147
-0.0068873269
0.0051963236
-0.00020570271
-0.0085615666
0.0059356803
-0.005323614
-0.0093005045
0.005129788
-0.010380635
-0.0084047759
0.0025072486
-0.0056100284
-0.0010462056
0.0021057794
-0.0052794416
0.0032638251
-0.00092997439
-0.0061816243
0.0034546876
-0.0043799223
-0.0062811771
0.0028291812
-0.007498247
-0.0052547592
0.0013236513
-0.0030365852
-0.00063881276
0.0012048964
-0.0038832211
0.0019819637
-0.0010210392
-0.0043955734
0.0019729442
-0.0033318408
-0.0042597204
0.0015392689
-0.0052563449
-0.0033488528
0.00067944448
-0.0017496923
-0.00041184887
0.00069381087
-0.0027866965
0.0011753884
-0.00088048019
-0.0030785554
0.0011209679
-0.0024110606
-0.0028790703
0.00084327153
-0.0035996634
-0.0021731639
0.00034721392
-0.0010439095
-0.0002681502
0.00040324656
0.00069521351
-0.00067833271
0.00065218305
-0.0017006878
0.00047712751
-0.0024620865
0.00018745056
-0.00016427902
0.0045178431
-0.0087326225
0.0063153114
-0.001010758
-0.011042037
0.0070735639
-0.0079395247
-0.011603196
0.0058593657
-0.013919735
-0.0095931905
0.0022968855
-0.0052153773
-0.0026382383
0.002304917
-0.0065550579
0.003789112
-0.0015553066
-0.0076634475
0.0039473848
-0.0058845878
-0.007572797
0.0031184424
-0.009453992
-0.0059026912
0.0012049378
-0.0028160175
-0.0013006654
0.0012026382
-0.0046832529
0.0022275893
-0.0014547383
-0.0052477282
0.0021963175
-0.0041913898
-0.0049567677
0.0016627512
-0.0063527564
-0.0036832328
0.00061954826
-0.0016090026
-0.00068962813
0.00064002833
-0.0032659849
0.001289038
-0.0011581974
-0.0035474988
0.0012224936
-0.0029069732
-0.0032457119
0.00089287045
-0.0042177786
-0.0023339639
0.00031620812
-0.00094148249
-0.00038312376
0.00036008919
0.00074618451
-0.00085339877
0.00068823976
-0.0019904123
0.00049183199
-0.0028141003
0.00016740925
-0.00021812372
0.0052248496
-0.011127164
0.0071233305
-0.0021803363
-0.014111266
0.0079303693
-0.011489959
-0.014321313
0.0067251565
-0.018831141
-0.010661839
0.0026579882
-0.0038520406
-0.0032596002
0.002457094
-0.0081039487
0.0039337414
-0.0023744785
-0.0094043993
0.0040815913
-0.0077953823
-0.0090260022
0.0032365651
-0.01194873
-0.006484503
0.0011880222
-0.0022001598
-0.0015246837
0.001171565
-0.0056196046
0.0021779282
-0.0019872348
-0.0062203929
0.0021478694
-0.0052336847
-0.0057261397
0.0016085659
-0.0076488012
-0.0039857655
0.00055435401
-0.0013016254
-0.00076662399
0.00057332898
-0.0038085057
0.0012086348
-0.0014875748
-0.0040814602
0.0011498224
-0.0034833593
-0.0036468362
0.00082337449
-0.004921216
-0.0024828623
0.0002629749
-0.00077658545
-0.00040729507
0.00030219839
0.00067438058
-0.001049877
0.00062052907
-0.0023148352
0.00043962275
-0.003199556
0.00013589561
-0.0002261165
0.0060253673
-0.014366812
-0.0033911512
-0.017957685
-0.015559629
-0.017801771
-0.024742749
-0.012113771
-0.0020883568
0.0026022237
-0.0098610215
-0.0032215762
-0.011336496
-0.0098458136
-0.010649794
-0.014664346
-0.0071127263
-0.0014178173
0.0011409551
-0.006589158
-0.0025275094
-0.0072176357
-0.0062930454
-0.0065095384
-0.008949807
-0.0042721443
-0.00093314964
0.00051475298
-0.0043418975
-0.0018145728
-0.0046102084
-0.0040476443
-0.0040283845
-0.0055974454
-0.002603784
-0.00059404347
0.00024837546
-0.0012299501
-0.0026191542
-0.0035611629
)
;

boundaryField
{
    movingWall
    {
        type            calculated;
        value           nonuniform 0();
    }
    CPLReceiveMD
    {
        type            calculated;
        value           nonuniform 0();
    }
    streamwiseIn
    {
        type            cyclic;
        value           nonuniform 0();
    }
    streamwiseOut
    {
        type            cyclic;
        value           nonuniform 0();
    }
    front
    {
        type            cyclic;
        value           nonuniform 0();
    }
    back
    {
        type            cyclic;
        value           nonuniform 0();
    }
    procBoundary22to4throughback
    {
        type            processorCyclic;
        value           nonuniform List<scalar> 
25
(
0.0061118889
0.0031637369
0.0016307148
0.00086326103
0.00044005461
0.0069900992
0.0033230151
0.0016198619
0.00081635357
0.00040147694
0.0061059006
0.0026501846
0.0012205784
0.00058319497
0.00025528359
0.0026085994
0.00099648363
0.00042497301
0.00018901434
4.5545241e-05
-0.0026895133
-0.0011905028
-0.00054694642
-0.00024974912
-0.00016764863
)
;
    }
    procBoundary22to13
    {
        type            processor;
        value           nonuniform List<scalar> 
25
(
-0.002587336
-0.0033709586
-0.0032482456
-0.0022349742
-0.00059914134
-0.0015861748
-0.0018259
-0.0016757605
-0.0010950067
-0.00020840766
-0.00095978716
-0.0010152633
-0.00088698223
-0.0005454856
-8.2723211e-05
-0.00055097863
-0.00057100442
-0.00047633409
-0.00027508789
-2.5594498e-05
-0.00027440436
-0.00029948058
-0.00025084923
-0.0001332721
1.0138581e-05
)
;
    }
    procBoundary22to19
    {
        type            processor;
        value           nonuniform List<scalar> 
25
(
0.0064136159
0.0075371936
0.0097254135
0.010719572
0.0092679393
0.0082953045
0.011433151
0.01369459
0.013620132
0.010682877
0.010661961
0.015396359
0.017707925
0.015723937
0.0099163082
0.014162228
0.020602843
0.022769093
0.017709331
0.0067579136
0.019969809
0.028167808
0.030346554
0.021213672
0.0028092998
)
;
    }
    procBoundary22to21
    {
        type            processor;
        value           nonuniform List<scalar> 
25
(
-0.0051896582
-0.0039212674
-0.0028176054
-0.0019373283
-0.0012711648
-0.0063867933
-0.0044518048
-0.0030594474
-0.0020764046
-0.0013841449
-0.0076610065
-0.0050335118
-0.0033410402
-0.0022178405
-0.0014844799
-0.0090182086
-0.0056455408
-0.0036319022
-0.0023547197
-0.0015611525
-0.010496949
-0.0063194324
-0.0039369657
-0.0024865068
-0.0016195341
)
;
    }
    procBoundary22to23
    {
        type            processor;
        value           nonuniform List<scalar> 
25
(
-0.011533339
-0.0080083022
-0.0055612805
-0.0038207968
-0.0025964019
-0.014188299
-0.0094527586
-0.0063389646
-0.0042541621
-0.0028640672
-0.017197385
-0.011266955
-0.0073546324
-0.0048130821
-0.0031941856
-0.021154188
-0.013359174
-0.0084662204
-0.0054092504
-0.0035290021
-0.025784262
-0.015539389
-0.00953107
-0.0059379821
-0.0038036604
)
;
    }
    procBoundary22to25
    {
        type            processor;
        value           nonuniform List<scalar> 
25
(
-0.0016607572
-0.0018594156
-0.0017502172
-0.001330125
-0.00067146087
-0.0019333479
-0.0020945209
-0.0019240584
-0.0014153541
-0.00065374042
-0.0022485608
-0.0023803357
-0.0021367561
-0.0015097355
-0.00060680988
-0.0025714111
-0.0026872667
-0.0023649503
-0.0015979151
-0.00052257527
-0.0028659484
-0.0029785813
-0.0025883028
-0.0016858604
-0.00041884933
)
;
    }
}


// ************************************************************************* //
