/*--------------------------------*- C++ -*----------------------------------*\
| =========                 |                                                 |
| \\      /  F ield         | OpenFOAM: The Open Source CFD Toolbox           |
|  \\    /   O peration     | Version:  3.0.1                                 |
|   \\  /    A nd           | Web:      www.OpenFOAM.org                      |
|    \\/     M anipulation  |                                                 |
\*---------------------------------------------------------------------------*/
FoamFile
{
    version     2.0;
    format      ascii;
    class       volVectorField;
    location    "0.2";
    object      U;
}
// * * * * * * * * * * * * * * * * * * * * * * * * * * * * * * * * * * * * * //

dimensions      [0 1 -1 0 0 0 0];

internalField   nonuniform List<vector> 
125
(
(1.0085792e-05 -1.4844834e-05 8.2088992e-06)
(3.9081052e-06 -1.7613029e-05 1.0309923e-05)
(-4.1483452e-06 -2.1204502e-05 9.6257079e-06)
(-1.4228546e-05 -2.2110884e-05 6.2188513e-06)
(-2.4193483e-05 -1.7968427e-05 1.1318967e-06)
(7.234947e-06 -1.2184671e-05 5.1309646e-06)
(1.6708613e-06 -1.4338753e-05 5.7372835e-06)
(-4.8051663e-06 -1.5541631e-05 5.0666983e-06)
(-1.1643023e-05 -1.4448725e-05 3.0371478e-06)
(-1.7512866e-05 -1.0156306e-05 1.4655094e-07)
(4.9717677e-06 -9.4671149e-06 3.1248324e-06)
(5.5114499e-07 -1.0913978e-05 3.2567477e-06)
(-4.2583183e-06 -1.1090705e-05 2.7263943e-06)
(-8.8432222e-06 -9.4833077e-06 1.508882e-06)
(-1.2436369e-05 -5.8916797e-06 -8.0999258e-08)
(3.3090273e-06 -7.1063351e-06 1.8472896e-06)
(4.7270643e-08 -8.0185879e-06 1.856861e-06)
(-3.374496e-06 -7.8129568e-06 1.481919e-06)
(-6.4439971e-06 -6.2942362e-06 7.5814137e-07)
(-8.6861986e-06 -3.5359277e-06 -1.3539267e-07)
(2.1269006e-06 -5.093817e-06 1.0367326e-06)
(-1.5547686e-07 -5.6914622e-06 1.037843e-06)
(-2.5339667e-06 -5.4076019e-06 8.247046e-07)
(-4.5661931e-06 -4.1882985e-06 3.9652622e-07)
(-5.9711092e-06 -2.1799631e-06 -1.3555597e-07)
(1.2694688e-05 -1.9230487e-05 1.1444101e-05)
(4.4808149e-06 -2.5006773e-05 1.3495362e-05)
(-6.8227423e-06 -2.8731738e-05 1.195364e-05)
(-1.9400334e-05 -2.7432593e-05 6.5406989e-06)
(-3.0546664e-05 -2.0106517e-05 -9.3105257e-07)
(8.2019742e-06 -1.522732e-05 7.2140176e-06)
(1.4880677e-06 -1.8429159e-05 7.767676e-06)
(-6.5957231e-06 -1.9467391e-05 6.5001929e-06)
(-1.4726892e-05 -1.702748e-05 3.3162439e-06)
(-2.109824e-05 -1.0712099e-05 -9.1559759e-07)
(5.3355845e-06 -1.1453849e-05 4.3931604e-06)
(2.4074404e-07 -1.3220676e-05 4.4519733e-06)
(-5.4210636e-06 -1.3168168e-05 3.5389846e-06)
(-1.0645043e-05 -1.072924e-05 1.6739678e-06)
(-1.4419068e-05 -5.9390607e-06 -7.0051071e-07)
(3.4671788e-06 -8.3370907e-06 2.6270422e-06)
(-2.2625148e-07 -9.3410337e-06 2.5438376e-06)
(-4.1042871e-06 -8.9170698e-06 1.9397917e-06)
(-7.4977847e-06 -6.8886181e-06 8.4745777e-07)
(-9.8093498e-06 -3.4718621e-06 -5.0275263e-07)
(2.2377722e-06 -5.8994347e-06 1.5629891e-06)
(-3.3923515e-07 -6.4642413e-06 1.4785692e-06)
(-2.9686481e-06 -5.999386e-06 1.1065967e-06)
(-5.1998356e-06 -4.4779782e-06 4.6316304e-07)
(-6.6581335e-06 -2.1120982e-06 -3.2863624e-07)
(1.5231217e-05 -2.4681273e-05 1.4347934e-05)
(4.4176452e-06 -3.3060441e-05 1.6177415e-05)
(-1.1103008e-05 -3.6622363e-05 1.3708939e-05)
(-2.7113238e-05 -3.1547015e-05 5.9884923e-06)
(-3.8745001e-05 -1.8642584e-05 -4.6132337e-06)
(9.1798902e-06 -1.9235611e-05 8.796837e-06)
(9.5703678e-07 -2.3382141e-05 9.238239e-06)
(-9.2565983e-06 -2.3956286e-05 7.4332146e-06)
(-1.9058813e-05 -1.9315456e-05 3.1623163e-06)
(-2.581777e-05 -9.9257641e-06 -2.4210576e-06)
(5.6857718e-06 -1.405409e-05 5.2505695e-06)
(-3.0303068e-07 -1.6137817e-05 5.2099922e-06)
(-7.0363237e-06 -1.5651107e-05 4.0032808e-06)
(-1.3082717e-05 -1.1952094e-05 1.6255177e-06)
(-1.7052772e-05 -5.4788346e-06 -1.3748023e-06)
(3.577474e-06 -9.9365064e-06 3.078977e-06)
(-6.3997987e-07 -1.0991992e-05 2.929134e-06)
(-5.0708758e-06 -1.0245345e-05 2.1707351e-06)
(-8.8865414e-06 -7.505041e-06 8.3014567e-07)
(-1.127723e-05 -3.1640532e-06 -8.13047e-07)
(2.3097616e-06 -6.8926246e-06 1.8019214e-06)
(-6.1186924e-07 -7.4074613e-06 1.6757487e-06)
(-3.5493728e-06 -6.7227845e-06 1.2115206e-06)
(-6.0014261e-06 -4.7954967e-06 4.4405175e-07)
(-7.5105612e-06 -1.923734e-06 -4.7746651e-07)
(1.7815385e-05 -3.2217164e-05 1.6777109e-05)
(3.8418208e-06 -4.34254e-05 1.8663478e-05)
(-1.7011665e-05 -4.6353007e-05 1.5685449e-05)
(-3.7722506e-05 -3.5403892e-05 6.1443734e-06)
(-4.9852799e-05 -1.308436e-05 -7.4370785e-06)
(1.0136552e-05 -2.4324685e-05 9.6449893e-06)
(1.2444554e-07 -2.9396583e-05 1.00173e-05)
(-1.2671645e-05 -2.9173049e-05 7.9341931e-06)
(-2.4581164e-05 -2.1390454e-05 2.9757951e-06)
(-3.156446e-05 -7.4736673e-06 -3.5641423e-06)
(6.0111785e-06 -1.7171709e-05 5.5029493e-06)
(-1.0065446e-06 -1.9529782e-05 5.4266191e-06)
(-9.0055379e-06 -1.8430648e-05 4.0859724e-06)
(-1.6023126e-05 -1.3061411e-05 1.4556987e-06)
(-2.0078726e-05 -4.3310499e-06 -1.829986e-06)
(3.66562e-06 -1.1785739e-05 3.1197745e-06)
(-1.1344934e-06 -1.2875277e-05 2.9642242e-06)
(-6.2032753e-06 -1.170883e-05 2.143687e-06)
(-1.0481567e-05 -8.0700841e-06 7.1668744e-07)
(-1.2896525e-05 -2.5745263e-06 -9.8888424e-07)
(2.3335993e-06 -7.9742427e-06 1.7751638e-06)
(-9.2963589e-07 -8.4586683e-06 1.6357729e-06)
(-4.200345e-06 -7.5093988e-06 1.1653274e-06)
(-6.8888228e-06 -5.0916088e-06 3.7933024e-07)
(-8.4109904e-06 -1.6120171e-06 -5.552236e-07)
(2.0664692e-05 -4.3363994e-05 1.6585345e-05)
(3.3259863e-06 -5.7688794e-05 1.8644356e-05)
(-2.3622111e-05 -6.0175782e-05 1.6020122e-05)
(-5.0235765e-05 -4.1625829e-05 6.5512797e-06)
(-6.3054302e-05 -6.0247294e-06 -7.4890763e-06)
(1.1159949e-05 -3.050977e-05 8.8729382e-06)
(-7.5375919e-07 -3.6619e-05 9.2517277e-06)
(-1.6298103e-05 -3.5555763e-05 7.3495514e-06)
(-3.0557148e-05 -2.4004131e-05 2.7139055e-06)
(-3.7698275e-05 -4.318671e-06 -3.429433e-06)
(6.3542792e-06 -2.0579305e-05 4.7601068e-06)
(-1.7200075e-06 -2.3190892e-05 4.7078434e-06)
(-1.1007244e-05 -2.1441613e-05 3.5323265e-06)
(-1.8998676e-05 -1.4211201e-05 1.2111778e-06)
(-2.3058744e-05 -2.9035765e-06 -1.653885e-06)
(3.7573899e-06 -1.3664292e-05 2.5887419e-06)
(-1.6160673e-06 -1.4782838e-05 2.4569722e-06)
(-7.3184126e-06 -1.316599e-05 1.7560593e-06)
(-1.2019113e-05 -8.5814094e-06 5.5714945e-07)
(-1.4388636e-05 -1.8892908e-06 -8.2288855e-07)
(2.3393211e-06 -9.0089409e-06 1.3922194e-06)
(-1.2217056e-06 -9.4839203e-06 1.2767832e-06)
(-4.8058154e-06 -8.265877e-06 8.6879556e-07)
(-7.7219771e-06 -5.3533449e-06 2.2603162e-07)
(-9.2067958e-06 -1.2551097e-06 -4.9318979e-07)
)
;

boundaryField
{
    movingWall
    {
        type            fixedValue;
        value           nonuniform 0();
    }
    CPLReceiveMD
    {
        type            fixedValue;
        value           nonuniform 0();
    }
    streamwiseIn
    {
        type            cyclic;
    }
    streamwiseOut
    {
        type            cyclic;
    }
    front
    {
        type            cyclic;
    }
    back
    {
        type            cyclic;
    }
    procBoundary22to4throughback
    {
        type            processorCyclic;
        value           nonuniform List<vector> 
25
(
(2.3725663e-05 -5.4278625e-05 1.1136258e-05)
(1.2204016e-05 -3.6149923e-05 5.5746795e-06)
(6.6802685e-06 -2.3455906e-05 2.7972272e-06)
(3.8460936e-06 -1.5153626e-05 1.4301674e-06)
(2.2725559e-06 -9.7236756e-06 7.4704943e-07)
(3.2765981e-06 -7.2810475e-05 1.266844e-05)
(-1.3989409e-06 -4.3333095e-05 5.8201809e-06)
(-2.2343247e-06 -2.6324537e-05 2.7587429e-06)
(-1.967176e-06 -1.6306338e-05 1.3517993e-06)
(-1.4530597e-06 -1.0197025e-05 6.589216e-07)
(-2.910474e-05 -7.6064346e-05 1.1065673e-05)
(-1.9209467e-05 -4.1660845e-05 4.5940856e-06)
(-1.2502203e-05 -2.402414e-05 2.0535353e-06)
(-8.103098e-06 -1.4372361e-05 9.5779551e-07)
(-5.2510966e-06 -8.7738649e-06 4.1186456e-07)
(-6.1231704e-05 -5.0023783e-05 4.7150929e-06)
(-3.5360148e-05 -2.6730556e-05 1.6745296e-06)
(-2.1209338e-05 -1.5218167e-05 6.8356096e-07)
(-1.3060515e-05 -9.0552304e-06 2.9463276e-07)
(-8.2508081e-06 -5.5013133e-06 7.0590863e-08)
(-7.4843959e-05 6.9704517e-07 -4.9966267e-06)
(-4.2655416e-05 -1.6384755e-06 -2.1551527e-06)
(-2.5319225e-05 -1.7245054e-06 -9.6421421e-07)
(-1.5492583e-05 -1.4138311e-06 -4.4885569e-07)
(-9.6817948e-06 -1.0140564e-06 -2.8661249e-07)
)
;
    }
    procBoundary22to13
    {
        type            processor;
        value           nonuniform List<vector> 
25
(
(7.9903793e-06 -1.1741159e-05 4.2090237e-06)
(3.0640059e-06 -1.2177619e-05 5.2825997e-06)
(-2.731671e-06 -1.5381491e-05 5.4802471e-06)
(-1.0906523e-05 -1.7698679e-05 4.2309253e-06)
(-1.9833037e-05 -1.5908552e-05 1.6116798e-06)
(6.42694e-06 -1.0143254e-05 2.5107903e-06)
(1.5523338e-06 -1.1375984e-05 2.9042294e-06)
(-3.8955875e-06 -1.2568077e-05 2.8291944e-06)
(-9.8067447e-06 -1.2317511e-05 2.0507752e-06)
(-1.507388e-05 -9.4992034e-06 6.2662663e-07)
(4.644055e-06 -8.1701743e-06 1.4762235e-06)
(6.3918207e-07 -9.3402539e-06 1.6094807e-06)
(-3.6731979e-06 -9.583389e-06 1.4855669e-06)
(-7.8376496e-06 -8.4502338e-06 1.005368e-06)
(-1.1031847e-05 -5.6571171e-06 2.4260951e-07)
(3.1945684e-06 -6.2489908e-06 8.3830837e-07)
(1.3911906e-07 -7.1221291e-06 8.9270126e-07)
(-3.0055675e-06 -7.01538e-06 7.9059737e-07)
(-5.880473e-06 -5.7762624e-06 5.0738761e-07)
(-7.8775814e-06 -3.4173054e-06 8.3522545e-08)
(2.1568756e-06 -4.7035861e-06 4.3678419e-07)
(-1.2720717e-07 -5.2384838e-06 4.7493129e-07)
(-2.3273313e-06 -5.0004059e-06 4.0590893e-07)
(-4.2395751e-06 -3.924269e-06 2.3820278e-07)
(-5.5156863e-06 -2.0829446e-06 8.4903071e-09)
)
;
    }
    procBoundary22to19
    {
        type            processor;
        value           nonuniform List<vector> 
25
(
(1.2929179e-05 -1.6534146e-05 1.2620293e-05)
(8.0305297e-06 -1.9504408e-05 1.8566437e-05)
(-3.0731055e-07 -2.8243583e-05 1.8416946e-05)
(-1.4879096e-05 -3.4093936e-05 1.2771063e-05)
(-3.2686417e-05 -3.2083488e-05 4.3445169e-06)
(1.9748126e-05 -2.2106643e-05 1.7050457e-05)
(1.098932e-05 -3.2840948e-05 2.3215088e-05)
(-4.1699004e-06 -4.2603446e-05 2.1918055e-05)
(-2.335211e-05 -4.5170973e-05 1.2752375e-05)
(-4.3315329e-05 -3.9910586e-05 -2.4143985e-07)
(2.6026512e-05 -2.8099745e-05 2.1783514e-05)
(1.2898128e-05 -4.5163726e-05 2.7656867e-05)
(-1.0770022e-05 -5.5991214e-05 2.5054484e-05)
(-3.7038588e-05 -5.1730101e-05 1.1133616e-05)
(-5.6530249e-05 -3.5912e-05 -9.4432129e-06)
(3.2994986e-05 -3.7060911e-05 2.832771e-05)
(1.4260291e-05 -6.2139746e-05 3.4645653e-05)
(-2.0693149e-05 -7.3574838e-05 3.1487611e-05)
(-5.7849806e-05 -5.8616727e-05 1.305461e-05)
(-7.8708043e-05 -2.284281e-05 -1.6181994e-05)
(4.0246369e-05 -5.6185893e-05 3.0934399e-05)
(1.6058032e-05 -8.995669e-05 3.8636803e-05)
(-3.2361062e-05 -0.00010425705 3.706089e-05)
(-8.4708193e-05 -7.451328e-05 1.7333796e-05)
(-0.00010843376 -6.5420624e-06 -1.7210836e-05)
)
;
    }
    procBoundary22to21
    {
        type            processor;
        value           nonuniform List<vector> 
25
(
(1.5957458e-05 -1.1918797e-05 5.6056143e-06)
(1.2001239e-05 -9.2247286e-06 3.9622495e-06)
(8.6635899e-06 -6.9880585e-06 2.5652182e-06)
(6.0626085e-06 -5.1737209e-06 1.5842506e-06)
(4.129874e-06 -3.8457744e-06 9.5694648e-07)
(1.8364457e-05 -1.3460621e-05 8.3499377e-06)
(1.3334804e-05 -1.1070056e-05 5.822733e-06)
(9.411532e-06 -8.4858812e-06 3.7379693e-06)
(6.5072107e-06 -6.2432215e-06 2.2753909e-06)
(4.4243345e-06 -4.4756046e-06 1.2957083e-06)
(2.0967031e-05 -1.621382e-05 1.1056719e-05)
(1.4856904e-05 -1.3836697e-05 7.3036612e-06)
(1.0278453e-05 -1.0535401e-05 4.5343982e-06)
(7.0050352e-06 -7.6159819e-06 2.7306927e-06)
(4.7353056e-06 -5.3091601e-06 1.5799215e-06)
(2.3847679e-05 -2.0566968e-05 1.3230002e-05)
(1.6535961e-05 -1.7592376e-05 8.037241e-06)
(1.1232012e-05 -1.305885e-05 4.7581119e-06)
(7.5309114e-06 -9.1976982e-06 2.7843084e-06)
(5.0340298e-06 -6.2472396e-06 1.6062133e-06)
(2.7736915e-05 -2.8602376e-05 1.2734079e-05)
(1.8496528e-05 -2.2308587e-05 7.1842645e-06)
(1.2241655e-05 -1.5788333e-05 4.0387535e-06)
(8.0478364e-06 -1.076788e-05 2.2764986e-06)
(5.2952522e-06 -7.1321436e-06 1.3378266e-06)
)
;
    }
    procBoundary22to23
    {
        type            processor;
        value           nonuniform List<vector> 
25
(
(-3.0623673e-05 -6.9373303e-06 -4.4947759e-06)
(-2.0524369e-05 -2.6916098e-06 -2.9872127e-06)
(-1.3874832e-05 -6.5664004e-07 -1.8783393e-06)
(-9.3883257e-06 1.7102321e-07 -1.1736271e-06)
(-6.3286757e-06 4.2565116e-07 -7.4592101e-07)
(-3.6549729e-05 -5.2155014e-06 -8.0108197e-06)
(-2.3781001e-05 -8.9988334e-07 -4.9886608e-06)
(-1.567644e-05 5.5965091e-07 -2.9424354e-06)
(-1.0386394e-05 8.7231682e-07 -1.7435732e-06)
(-6.9211282e-06 8.4504146e-07 -1.076289e-06)
(-4.2605784e-05 -8.3453138e-07 -1.3317644e-05)
(-2.7509354e-05 2.3767747e-06 -7.3039036e-06)
(-1.7799378e-05 2.5884477e-06 -4.0341401e-06)
(-1.1573931e-05 2.0371696e-06 -2.25703e-06)
(-7.6094654e-06 1.5114003e-06 -1.3088052e-06)
(-4.985728e-05 1.1739698e-05 -1.8164928e-05)
(-3.1523228e-05 8.3836216e-06 -8.9047103e-06)
(-2.0005339e-05 5.6065246e-06 -4.5502737e-06)
(-1.2791888e-05 3.5976517e-06 -2.3947194e-06)
(-8.2917738e-06 2.3395488e-06 -1.3169044e-06)
(-5.7411922e-05 2.9109668e-05 -1.843988e-05)
(-3.537972e-05 1.599143e-05 -8.3770509e-06)
(-2.2011551e-05 9.0984387e-06 -4.0293209e-06)
(-1.3854287e-05 5.270539e-06 -2.0389084e-06)
(-8.8561583e-06 3.1516225e-06 -1.0447728e-06)
)
;
    }
    procBoundary22to25
    {
        type            processor;
        value           nonuniform List<vector> 
25
(
(1.4633395e-06 -3.5918535e-06 6.51441e-07)
(-2.6651423e-07 -3.9490833e-06 6.3110353e-07)
(-1.8713324e-06 -3.6565373e-06 4.829389e-07)
(-3.2163583e-06 -2.7283139e-06 2.0443212e-07)
(-4.072249e-06 -1.3074813e-06 -1.6454634e-07)
(1.4785421e-06 -4.0683018e-06 8.2823466e-07)
(-3.262028e-07 -4.3848295e-06 8.2783852e-07)
(-2.1180241e-06 -3.9909687e-06 6.2460906e-07)
(-3.6104969e-06 -2.894138e-06 2.402596e-07)
(-4.4863302e-06 -1.2710566e-06 -2.465235e-07)
(1.4791728e-06 -4.6529769e-06 1.004169e-06)
(-4.7013982e-07 -4.930538e-06 9.3470693e-07)
(-2.4589113e-06 -4.3991276e-06 6.607223e-07)
(-4.0874909e-06 -3.0742377e-06 2.1651512e-07)
(-4.9703326e-06 -1.1739643e-06 -3.1296588e-07)
(1.4541913e-06 -5.2729871e-06 1.0034582e-06)
(-6.6964952e-07 -5.5176948e-06 8.877652e-07)
(-2.8362159e-06 -4.8336195e-06 6.0059453e-07)
(-4.5841851e-06 -3.2394674e-06 1.5883926e-07)
(-5.465368e-06 -1.0058215e-06 -3.2025996e-07)
(1.4056132e-06 -5.8433869e-06 8.3930908e-07)
(-8.7300345e-07 -6.0716632e-06 7.1861559e-07)
(-3.1878372e-06 -5.251679e-06 4.9159319e-07)
(-5.0083454e-06 -3.3911416e-06 1.4744488e-07)
(-5.8836691e-06 -8.0520205e-07 -2.2492785e-07)
)
;
    }
}


// ************************************************************************* //
