/*--------------------------------*- C++ -*----------------------------------*\
| =========                 |                                                 |
| \\      /  F ield         | OpenFOAM: The Open Source CFD Toolbox           |
|  \\    /   O peration     | Version:  3.0.1                                 |
|   \\  /    A nd           | Web:      www.OpenFOAM.org                      |
|    \\/     M anipulation  |                                                 |
\*---------------------------------------------------------------------------*/
FoamFile
{
    version     2.0;
    format      ascii;
    class       volScalarField;
    location    "0.1";
    object      p;
}
// * * * * * * * * * * * * * * * * * * * * * * * * * * * * * * * * * * * * * //

dimensions      [0 2 -2 0 0 0 0];

internalField   nonuniform List<scalar> 
125
(
-0.053085431
-0.054781016
-0.056333059
-0.057621469
-0.058396955
-0.053033762
-0.0542764
-0.055374627
-0.056183583
-0.056518293
-0.052974618
-0.053867612
-0.054620298
-0.055117806
-0.055246365
-0.052919932
-0.05354638
-0.054051504
-0.054357906
-0.054396869
-0.05287294
-0.053300024
-0.053639893
-0.053835209
-0.053838838
-0.052918876
-0.054475089
-0.055954076
-0.057199257
-0.057896492
-0.05297695
-0.054139117
-0.055179007
-0.055949067
-0.056249504
-0.052960637
-0.053802014
-0.054517776
-0.054993255
-0.055109244
-0.052919819
-0.053513603
-0.053998793
-0.054294305
-0.054328545
-0.052874373
-0.053286044
-0.053612821
-0.053798837
-0.053798914
-0.05293797
-0.054362572
-0.055812424
-0.057058962
-0.057688273
-0.053010723
-0.054117989
-0.055132744
-0.055884243
-0.056143102
-0.052990988
-0.053806162
-0.054505175
-0.054965638
-0.055058149
-0.052942123
-0.05352352
-0.053998521
-0.05428358
-0.054304695
-0.052890005
-0.053296192
-0.053616266
-0.053794483
-0.053786733
-0.053149576
-0.05452722
-0.056033997
-0.057346686
-0.057918784
-0.053136046
-0.054246638
-0.055288208
-0.056055252
-0.056268238
-0.05306582
-0.053891272
-0.054601854
-0.055062587
-0.055125699
-0.052989019
-0.053576626
-0.054055681
-0.054338009
-0.054341772
-0.052918957
-0.053328887
-0.053650493
-0.053825752
-0.053807952
-0.053451185
-0.054959959
-0.056663896
-0.058126326
-0.058650209
-0.053308687
-0.054509782
-0.055645302
-0.056467422
-0.056638851
-0.053167611
-0.054045112
-0.054800286
-0.055280463
-0.055314519
-0.053052316
-0.053663431
-0.054164451
-0.054453447
-0.054440209
-0.052953529
-0.053379496
-0.053711297
-0.053888249
-0.053860546
)
;

boundaryField
{
    movingWall
    {
        type            zeroGradient;
    }
    CPLReceiveMD
    {
        type            zeroGradient;
    }
    streamwiseIn
    {
        type            cyclic;
    }
    streamwiseOut
    {
        type            cyclic;
    }
    front
    {
        type            cyclic;
    }
    back
    {
        type            cyclic;
    }
    procBoundary13to4
    {
        type            processor;
        value           nonuniform List<scalar> 
25
(
-0.053313596
-0.05516723
-0.0568339
-0.058207542
-0.059042524
-0.053137151
-0.054481599
-0.055661394
-0.056527762
-0.05688543
-0.053022175
-0.053976176
-0.054780619
-0.055313804
-0.055456269
-0.052938856
-0.053602347
-0.05413817
-0.054465558
-0.054515617
-0.052876676
-0.053325984
-0.053683136
-0.05388826
-0.053896466
)
;
    }
    procBoundary13to10
    {
        type            processor;
        value           nonuniform List<scalar> 
25
(
-0.053135585
-0.055408845
-0.057456897
-0.059423761
-0.061154464
-0.052672095
-0.054685832
-0.056718249
-0.058715362
-0.060256619
-0.052637992
-0.054298739
-0.056335438
-0.058439263
-0.059847002
-0.053010615
-0.054414617
-0.056582239
-0.058906864
-0.06024527
-0.053525456
-0.055062196
-0.057657759
-0.060374449
-0.06170835
)
;
    }
    procBoundary13to12
    {
        type            processor;
        value           nonuniform List<scalar> 
25
(
-0.051320778
-0.051750777
-0.052054819
-0.052269269
-0.052418906
-0.051352089
-0.05179506
-0.052094091
-0.052300813
-0.052442238
-0.051556981
-0.051902923
-0.052154309
-0.05233565
-0.052466477
-0.051849387
-0.052035524
-0.0522206
-0.052371146
-0.052487154
-0.052062133
-0.052130869
-0.052267926
-0.05239541
-0.052495731
)
;
    }
    procBoundary13to14
    {
        type            processor;
        value           nonuniform List<scalar> 
25
(
-0.058162094
-0.056157093
-0.054922919
-0.05414392
-0.053642495
-0.057612996
-0.055878437
-0.054779888
-0.054071554
-0.053606621
-0.057277671
-0.055717481
-0.054698967
-0.05403043
-0.053587733
-0.057276828
-0.055726013
-0.054706302
-0.054033898
-0.053590019
-0.057693406
-0.055932668
-0.054810277
-0.054085487
-0.05361634
)
;
    }
    procBoundary13to16
    {
        type            processor;
        value           nonuniform List<scalar> 
25
(
-0.052832116
-0.053121173
-0.05334767
-0.053470707
-0.053462824
-0.052839455
-0.05311906
-0.0533376
-0.05345446
-0.053443991
-0.052853307
-0.053129326
-0.05334353
-0.053455244
-0.053439938
-0.052870885
-0.053151346
-0.05336637
-0.053474994
-0.053452647
-0.052886477
-0.053180546
-0.053402813
-0.053512534
-0.053482678
)
;
    }
    procBoundary13to22
    {
        type            processor;
        value           nonuniform List<scalar> 
25
(
-0.053687759
-0.055561371
-0.057613862
-0.059299297
-0.059801462
-0.053455926
-0.054833852
-0.056137366
-0.05705635
-0.057200073
-0.053253442
-0.054223336
-0.055058786
-0.055581686
-0.055594798
-0.053094684
-0.053759945
-0.054301925
-0.054610327
-0.054581847
-0.052978312
-0.05343312
-0.053789348
-0.0539753
-0.05393686
)
;
    }
}


// ************************************************************************* //
