/*--------------------------------*- C++ -*----------------------------------*\
| =========                 |                                                 |
| \\      /  F ield         | OpenFOAM: The Open Source CFD Toolbox           |
|  \\    /   O peration     | Version:  3.0.1                                 |
|   \\  /    A nd           | Web:      www.OpenFOAM.org                      |
|    \\/     M anipulation  |                                                 |
\*---------------------------------------------------------------------------*/
FoamFile
{
    version     2.0;
    format      ascii;
    class       surfaceScalarField;
    location    "0.1";
    object      phi;
}
// * * * * * * * * * * * * * * * * * * * * * * * * * * * * * * * * * * * * * //

dimensions      [0 3 -1 0 0 0 0];

internalField   nonuniform List<scalar> 
300
(
0.003387659
-0.00010293792
-0.00033321695
0.0031018029
-0.001008471
-0.00061189276
0.0025759993
-0.0019159415
-0.00075798629
0.0015513751
-0.0028749305
-0.00084453032
-0.0037567902
-0.001001104
0.0024822244
-0.00011778089
-0.00011379857
0.0021943574
-0.00081643881
-0.00027466591
0.0016170949
-0.0015071911
-0.00039128692
0.00066986764
-0.0021301051
-0.00046908887
-0.0025426943
-0.00053768315
0.0017835849
-0.00010895767
-2.8114727e-05
0.0015036685
-0.00064141952
-0.00013128211
0.00099430697
-0.0011361691
-0.00020508364
0.00025746808
-0.0015183373
-0.00024912814
-0.0016977335
-0.00027428196
0.0012511149
-9.3690331e-05
-3.2639062e-07
0.0010089649
-0.00049188444
-6.5603721e-05
0.00061223756
-0.00082207578
-0.00010544354
7.8163771e-05
-0.0010441806
-0.00012721148
-0.0011149861
-0.00013665511
0.00085291469
2.8143768e-06
0.00067879964
-2.7991039e-05
0.00039018642
-5.4147991e-05
7.4031438e-06
-7.2724904e-05
-7.9816538e-05
0.0031090357
0.00011658079
3.8111094e-05
0.0029557094
-0.00067113004
-0.00022498731
0.0024894145
-0.0015491655
-0.00028321192
0.0013947952
-0.0024994483
-0.00028054959
-0.0032932627
-0.00041655348
0.0023213868
-3.2060094e-05
6.7424638e-05
0.0020777553
-0.00067302532
-4.2305563e-05
0.0015392893
-0.0013209683
-9.2528671e-05
0.00060127936
-0.0019101258
-0.00012966631
-0.0022792396
-0.00021290381
0.0016804352
-8.1150414e-05
6.0587973e-05
0.0014298835
-0.00057573567
8.2205812e-06
0.00095026935
-0.0010365303
-2.5240413e-05
0.00023231718
-0.0013964162
-5.5268234e-05
-0.0015600838
-0.00010225248
0.0011858473
-9.0538223e-05
4.452154e-05
0.00096913565
-0.00045426791
1.9766479e-05
0.00059047669
-0.00077078153
-5.8874741e-07
6.8722391e-05
-0.00098969489
-2.1478696e-05
-0.0010581414
-4.7730663e-05
0.00082211374
3.1204637e-05
0.00065264805
2.0243824e-05
0.00037161411
6.8546885e-06
3.1324547e-07
-8.7249878e-06
-2.4370885e-05
0.0028459214
0.00014591094
0.00042308584
0.0028973974
-0.00048832795
0.00032925117
0.0024919791
-0.0013583638
0.00044313252
0.0012588187
-0.0023484893
0.00057542211
-0.0030895473
0.00046090133
0.0022116394
-3.8893245e-05
0.00025059112
0.0020274948
-0.00062246156
0.00025722389
0.0015021205
-0.0012536365
0.00031084796
0.00051804964
-0.0018356931
0.00034190682
-0.0021685479
0.00025009314
0.0016280589
-9.7216381e-05
0.00014960327
0.0013964075
-0.0005641803
0.00017013682
0.00092022934
-0.001011866
0.00019326592
0.00018533477
-0.0013626108
0.00019378636
-0.0015055393
0.0001349459
0.0011610887
-0.00010385494
9.3727163e-05
0.00094877484
-0.0004537881
0.00010613398
0.00056958206
-0.00076333479
0.00011424046
4.2470069e-05
-0.00097693536
0.00010876789
-0.0010347711
7.4048192e-05
0.00081115178
5.7849506e-05
0.00063925707
6.5325892e-05
0.00035603284
6.8387044e-05
-1.5333313e-05
6.247065e-05
4.2370551e-05
0.0027520137
-2.6673588e-05
0.0006031453
0.0030111358
-0.00056027949
0.0008654299
0.002624133
-0.0014905667
0.0012597627
0.0011442796
-0.0025819776
0.0015592474
-0.0033003649
0.0014628077
0.0022182471
-0.00013991625
0.00034527412
0.0020810567
-0.00070953888
0.00052624063
0.0015331256
-0.0013712014
0.00071412693
0.00042622487
-0.0019838169
0.00082425008
-0.0022837085
0.00074109045
0.0016485766
-0.00015311401
0.00020356916
0.0014195082
-0.00062818641
0.00030762394
0.00092072639
-0.0010908915
0.000396784
0.00012649101
-0.0014476338
0.00043563727
-0.0015664415
0.00037748016
0.0011734876
-0.00013974279
0.00012655323
0.00095686908
-0.00049460038
0.00017355161
0.00056409929
-0.00080919094
0.00021745751
7.7484535e-06
-0.0010232353
0.00023076889
-0.0010664486
0.00019673761
0.00081862492
6.9105477e-05
0.00064231349
0.00010115462
0.00035011226
0.00012153052
-3.543483e-05
0.00012490585
0.00010508904
0.003014194
-0.0002845802
0.0034054088
-0.00089941537
0.0029235189
-0.0020362134
0.001047781
-0.00331707
-0.0040222191
0.0023991646
-0.00028160532
0.0022688708
-0.00092815473
0.0016431917
-0.0016885643
0.00034304048
-0.0023724901
-0.0026473848
0.001752605
-0.00023015135
0.0015086315
-0.00076227213
0.00095955198
-0.0012702333
6.8328305e-05
-0.0016525314
-0.0017472203
0.0012204726
-0.00019720285
0.0010007576
-0.0005670061
0.00057739787
-0.00090512706
-2.6283873e-05
-0.0011291112
-0.0011581097
0.00085066803
0.00066268185
0.00035348184
-5.5252112e-05
)
;

boundaryField
{
    movingWall
    {
        type            calculated;
        value           nonuniform 0();
    }
    CPLReceiveMD
    {
        type            calculated;
        value           nonuniform 0();
    }
    streamwiseIn
    {
        type            cyclic;
        value           nonuniform 0();
    }
    streamwiseOut
    {
        type            cyclic;
        value           nonuniform 0();
    }
    front
    {
        type            cyclic;
        value           nonuniform 0();
    }
    back
    {
        type            cyclic;
        value           nonuniform 0();
    }
    procBoundary13to4
    {
        type            processor;
        value           nonuniform List<scalar> 
25
(
0.00045654699
0.00077271144
0.0010020638
0.001172599
0.0012915046
0.00020699036
0.00041063279
0.00057379337
0.00068860972
0.00073448218
9.5249979e-05
0.00021726419
0.00032076969
0.00039209329
0.00041985321
3.7926764e-05
0.00011199713
0.00017337493
0.00021532007
0.00023746323
7.5203351e-06
5.1941734e-05
8.6489183e-05
0.00010609286
0.00011522334
)
;
    }
    procBoundary13to10
    {
        type            processor;
        value           nonuniform List<scalar> 
25
(
0.0001003384
0.0012559306
0.0022479812
0.003604846
0.0055154977
-0.00049354956
0.00042163268
0.0015285695
0.0030324335
0.0047206235
-0.00059991532
-0.00012768162
0.0010461087
0.0027608157
0.0043178259
-0.00027791481
-0.00022548807
0.0010964067
0.0031206333
0.0046535455
0.00014866838
0.00020389835
0.001987561
0.0044966642
0.0061172412
)
;
    }
    procBoundary13to12
    {
        type            processor;
        value           nonuniform List<scalar> 
25
(
-0.0035251957
-0.0025625596
-0.0018369991
-0.0012994213
-0.00090671357
-0.003129581
-0.0023604379
-0.0017305272
-0.0012361414
-0.00086295197
-0.0027581295
-0.0022122988
-0.0016707988
-0.0012110732
-0.0008457463
-0.0025965659
-0.0021976998
-0.0016878315
-0.0012338297
-0.00086226932
-0.0027741161
-0.0023521982
-0.0017966811
-0.0013118196
-0.00091419917
)
;
    }
    procBoundary13to14
    {
        type            processor;
        value           nonuniform List<scalar> 
25
(
-0.00046805072
-0.00072070996
-0.00064554116
-0.0005049143
-0.00039197682
-0.0005652982
-0.00074047844
-0.00065736531
-0.0005129874
-0.00038388512
-0.00081952944
-0.0008496525
-0.00071704908
-0.00054754076
-0.00039730013
-0.0012822435
-0.001082902
-0.00083750619
-0.00061476016
-0.00043515302
-0.0019119526
-0.0014108708
-0.0010072254
-0.00070845436
-0.00048768539
)
;
    }
    procBoundary13to16
    {
        type            processor;
        value           nonuniform List<scalar> 
25
(
-8.1444805e-05
-0.00035710721
-0.00058358508
-0.00072804529
-0.00075115325
-6.9615743e-05
-0.00033336281
-0.00054958101
-0.00068780232
-0.00070897747
-7.3164965e-05
-0.00033311502
-0.00054460609
-0.00067752432
-0.00069271375
-9.5905727e-05
-0.00035445966
-0.00056737244
-0.00070054817
-0.00070970429
-0.00013385702
-0.00039727429
-0.00061609173
-0.00075045486
-0.00075480613
)
;
    }
    procBoundary13to22
    {
        type            processor;
        value           nonuniform List<scalar> 
25
(
0.0004733268
0.0012029329
0.0019000246
0.0023460103
0.0023026391
0.00029455709
0.00064825842
0.0009842514
0.0011779437
0.0011224869
0.00017172588
0.00035650907
0.00051704872
0.00060244971
0.00056050278
8.4782274e-05
0.00019303372
0.00027492824
0.00031370639
0.0002831885
4.957115e-05
0.00010721691
0.00015603687
0.00017401389
0.00015253368
)
;
    }
}


// ************************************************************************* //
