/*--------------------------------*- C++ -*----------------------------------*\
| =========                 |                                                 |
| \\      /  F ield         | OpenFOAM: The Open Source CFD Toolbox           |
|  \\    /   O peration     | Version:  3.0.1                                 |
|   \\  /    A nd           | Web:      www.OpenFOAM.org                      |
|    \\/     M anipulation  |                                                 |
\*---------------------------------------------------------------------------*/
FoamFile
{
    version     2.0;
    format      ascii;
    class       volVectorField;
    location    "0.1";
    object      U;
}
// * * * * * * * * * * * * * * * * * * * * * * * * * * * * * * * * * * * * * //

dimensions      [0 1 -1 0 0 0 0];

internalField   nonuniform List<vector> 
125
(
(8.6407459e-06 -2.5383582e-07 -9.8744583e-07)
(8.1116385e-06 -2.8300282e-06 -1.7309134e-06)
(7.097599e-06 -5.2047311e-06 -2.2001388e-06)
(5.1601045e-06 -8.0997374e-06 -2.5215239e-06)
(1.3550747e-06 -1.1589663e-05 -2.8658993e-06)
(6.3057525e-06 -2.7573268e-07 -4.0110366e-07)
(5.845599e-06 -2.2806836e-06 -8.5668904e-07)
(4.7645764e-06 -4.2783787e-06 -1.2063778e-06)
(2.8591571e-06 -6.2556835e-06 -1.4471604e-06)
(-6.3148818e-08 -7.8735475e-06 -1.5902911e-06)
(4.5256051e-06 -2.833869e-07 -1.5427082e-07)
(4.1089925e-06 -1.8221588e-06 -4.3573098e-07)
(3.1225991e-06 -3.3039274e-06 -6.5734647e-07)
(1.5649357e-06 -4.5601771e-06 -8.015505e-07)
(-4.8492011e-07 -5.29999e-06 -8.6770046e-07)
(3.1881083e-06 -2.5332179e-07 -4.7850805e-08)
(2.8250585e-06 -1.4165908e-06 -2.2203254e-07)
(2.026558e-06 -2.4476922e-06 -3.4854686e-07)
(8.6309456e-07 -3.2029383e-06 -4.2818089e-07)
(-5.3336581e-07 -3.5156072e-06 -4.6766052e-07)
(2.1995078e-06 -2.1893644e-07 -5.8987496e-09)
(1.9146221e-06 -1.061235e-06 -9.9933583e-08)
(1.3362516e-06 -1.7570313e-06 -1.7581153e-07)
(4.9702081e-07 -2.2151837e-06 -2.2353252e-07)
(-4.8068755e-07 -2.3325302e-06 -2.4380509e-07)
(7.7979605e-06 7.6254048e-07 -3.690051e-07)
(7.5808345e-06 -1.3659617e-06 -1.0461643e-06)
(6.8068489e-06 -3.8472018e-06 -1.3015427e-06)
(4.8560519e-06 -6.9147609e-06 -1.4064271e-06)
(1.0375789e-06 -1.0016699e-05 -1.7723255e-06)
(5.8520803e-06 1.0572962e-07 -5.8038634e-08)
(5.4988537e-06 -1.6799085e-06 -3.9622682e-07)
(4.5215913e-06 -3.5872576e-06 -6.04749e-07)
(2.6761261e-06 -5.5114249e-06 -7.4843643e-07)
(-1.7368317e-07 -6.9648684e-06 -9.3827318e-07)
(4.2635859e-06 -1.4150492e-07 4.0550552e-08)
(3.8878472e-06 -1.5608451e-06 -1.5383427e-07)
(2.9753325e-06 -2.9466635e-06 -2.8788574e-07)
(1.4784412e-06 -4.13286e-06 -3.8046908e-07)
(-5.311693e-07 -4.7986967e-06 -4.7065525e-07)
(3.0274234e-06 -2.1463486e-07 5.5220236e-08)
(2.6936952e-06 -1.2874824e-06 -5.7304427e-08)
(1.9495765e-06 -2.2590492e-06 -1.3253166e-07)
(8.2409291e-07 -2.9824655e-06 -1.8584344e-07)
(-5.5526714e-07 -3.2725445e-06 -2.3046337e-07)
(2.1063021e-06 -2.0021785e-07 4.2511358e-08)
(1.8434329e-06 -9.8454311e-07 -9.6908104e-09)
(1.2803494e-06 -1.6504205e-06 -5.9115398e-08)
(4.649459e-07 -2.0967913e-06 -1.0180344e-07)
(-4.7943596e-07 -2.2087823e-06 -1.3022202e-07)
(7.0046659e-06 9.3206668e-07 5.7668955e-07)
(7.1791009e-06 -4.5126212e-07 1.303e-07)
(6.7373362e-06 -3.0059377e-06 1.9975163e-07)
(4.6893217e-06 -6.3865765e-06 3.6838468e-07)
(5.4964064e-07 -9.2586312e-06 5.5223462e-08)
(5.5297089e-06 1.3382298e-07 3.9757242e-07)
(5.2988887e-06 -1.3883536e-06 2.6862734e-07)
(4.4123668e-06 -3.2647217e-06 2.7283774e-07)
(2.5256329e-06 -5.2297255e-06 2.6521054e-07)
(-4.1426792e-07 -6.5718772e-06 4.6375161e-08)
(4.1234531e-06 -1.7012803e-07 2.6275805e-07)
(3.7805562e-06 -1.4832364e-06 2.2294005e-07)
(2.8959643e-06 -2.8317101e-06 2.1000865e-07)
(1.3821662e-06 -3.9975842e-06 1.731101e-07)
(-6.6453674e-07 -4.5921802e-06 4.0816947e-08)
(2.965139e-06 -2.5136099e-07 1.7281695e-07)
(2.6373067e-06 -1.2724473e-06 1.573731e-07)
(1.898019e-06 -2.2189219e-06 1.420559e-07)
(7.6516284e-07 -2.9242726e-06 1.0909632e-07)
(-6.3128807e-07 -3.1751739e-06 3.2875858e-08)
(2.0710914e-06 -2.2129908e-07 1.1131881e-07)
(1.8129953e-06 -9.8363591e-07 1.0696048e-07)
(1.244139e-06 -1.6348971e-06 9.4048384e-08)
(4.2591419e-07 -2.0680009e-06 6.7176002e-08)
(-5.1576747e-07 -2.1592533e-06 2.2491228e-08)
(6.6851784e-06 3.1396176e-07 1.2828516e-06)
(7.2038966e-06 -4.1931957e-07 1.4933077e-06)
(7.0449336e-06 -3.2343352e-06 2.1284891e-06)
(4.7115237e-06 -7.1282419e-06 2.6682319e-06)
(-1.7200734e-07 -9.9417537e-06 2.4045156e-06)
(5.5196876e-06 -2.0820188e-07 7.4496672e-07)
(5.374119e-06 -1.5872684e-06 9.7934922e-07)
(4.5181745e-06 -3.5770006e-06 1.2811601e-06)
(2.4496636e-06 -5.7066995e-06 1.4576188e-06)
(-8.2066061e-07 -6.9792749e-06 1.2388892e-06)
(4.1703835e-06 -3.6626039e-07 4.4152251e-07)
(3.8350979e-06 -1.6720993e-06 5.9720684e-07)
(2.9255026e-06 -3.0774453e-06 7.3753072e-07)
(1.3092495e-06 -4.2889742e-06 7.8673045e-07)
(-8.8869264e-07 -4.812196e-06 6.4046919e-07)
(3.0090824e-06 -3.660741e-07 2.7537469e-07)
(2.6629341e-06 -1.403462e-06 3.4961042e-07)
(1.9012997e-06 -2.3750095e-06 4.1460815e-07)
(7.1491287e-07 -3.0883996e-06 4.2439539e-07)
(-7.5872975e-07 -3.2908702e-06 3.3844769e-07)
(2.101087e-06 -2.9457456e-07 1.5870338e-07)
(1.8261624e-06 -1.0613245e-06 2.0810314e-07)
(1.2405649e-06 -1.7206651e-06 2.3739183e-07)
(3.9338874e-07 -2.1546427e-06 2.3420922e-07)
(-5.8821731e-07 -2.2200791e-06 1.843083e-07)
(7.2345541e-06 -5.4152886e-07 1.3458615e-06)
(8.0247384e-06 -1.3802572e-06 2.5856683e-06)
(7.9122604e-06 -5.0303565e-06 3.9500075e-06)
(4.9653482e-06 -9.7668688e-06 4.8819085e-06)
(-1.0797637e-06 -1.2673219e-05 4.7071059e-06)
(5.9389397e-06 -7.0750615e-07 7.9987976e-07)
(5.8350821e-06 -2.2844544e-06 1.4682017e-06)
(4.8906364e-06 -4.6556801e-06 2.1230686e-06)
(2.483362e-06 -7.1112269e-06 2.5028703e-06)
(-1.334618e-06 -8.3359236e-06 2.3295921e-06)
(4.4364832e-06 -6.3972005e-07 4.691804e-07)
(4.0765644e-06 -2.1129752e-06 8.3021536e-07)
(3.0854879e-06 -3.698262e-06 1.1423351e-06)
(1.2851047e-06 -5.0308076e-06 1.2976533e-06)
(-1.1735644e-06 -5.4926216e-06 1.1725121e-06)
(3.1653052e-06 -5.3418012e-07 2.6420448e-07)
(2.7765401e-06 -1.661551e-06 4.5825986e-07)
(1.972804e-06 -2.7190608e-06 6.1550346e-07)
(6.8900238e-07 -3.4767938e-06 6.8060864e-07)
(-9.1840172e-07 -3.6313348e-06 5.9991247e-07)
(2.2060561e-06 -4.1382568e-07 1.4836318e-07)
(1.8916838e-06 -1.2053312e-06 2.6047956e-07)
(1.2702451e-06 -1.9014556e-06 3.4697031e-07)
(3.7283066e-07 -2.3493331e-06 3.7365516e-07)
(-6.7866192e-07 -2.3909952e-06 3.2202735e-07)
)
;

boundaryField
{
    movingWall
    {
        type            fixedValue;
        value           nonuniform 0();
    }
    CPLReceiveMD
    {
        type            fixedValue;
        value           nonuniform 0();
    }
    streamwiseIn
    {
        type            cyclic;
    }
    streamwiseOut
    {
        type            cyclic;
    }
    front
    {
        type            cyclic;
    }
    back
    {
        type            cyclic;
    }
    procBoundary13to4
    {
        type            processor;
        value           nonuniform List<vector> 
25
(
(9.4679694e-06 -1.2958253e-06 -9.3347958e-07)
(8.7935274e-06 -4.0753739e-06 -1.7259106e-06)
(7.5974594e-06 -6.5534451e-06 -2.5007411e-06)
(5.5218124e-06 -9.5537778e-06 -3.1157511e-06)
(1.4427104e-06 -1.3426545e-05 -3.3416798e-06)
(6.8533246e-06 -7.2744539e-07 -4.743182e-07)
(6.3041279e-06 -2.9750909e-06 -1.0057832e-06)
(5.1120627e-06 -5.1300499e-06 -1.4761049e-06)
(3.0600395e-06 -7.2313982e-06 -1.8123265e-06)
(-1.3248039e-07 -8.9630672e-06 -1.8824168e-06)
(4.8714352e-06 -4.9475777e-07 -2.3368291e-07)
(4.3909229e-06 -2.1955016e-06 -5.6029847e-07)
(3.341152e-06 -3.8044944e-06 -8.463818e-07)
(1.6887952e-06 -5.1518395e-06 -1.0389742e-06)
(-5.7957769e-07 -5.9213273e-06 -1.0653486e-06)
(3.3960844e-06 -3.6300694e-07 -9.9918135e-08)
(2.9943912e-06 -1.6232798e-06 -3.0237859e-07)
(2.1557248e-06 -2.7405842e-06 -4.7864832e-07)
(9.4320657e-07 -3.5604835e-06 -5.8685134e-07)
(-6.0500403e-07 -3.8964399e-06 -5.9707235e-07)
(2.3156964e-06 -2.6436815e-07 -3.334694e-08)
(2.0133457e-06 -1.157856e-06 -1.6576507e-07)
(1.4039483e-06 -1.8985327e-06 -2.6368007e-07)
(5.3293946e-07 -2.3912035e-06 -3.1279228e-07)
(-4.9618451e-07 -2.5390996e-06 -3.0927895e-07)
)
;
    }
    procBoundary13to10
    {
        type            processor;
        value           nonuniform List<vector> 
25
(
(1.1703563e-05 -3.7831879e-07 -2.4594694e-06)
(1.0796494e-05 -3.7124244e-06 -3.5661012e-06)
(1.0034286e-05 -5.5580243e-06 -3.9126212e-06)
(9.2440891e-06 -9.053575e-06 -4.0861773e-06)
(5.3052453e-06 -1.6648247e-05 -5.000137e-06)
(1.0086225e-05 2.2553392e-06 -1.2439411e-06)
(1.0108596e-05 -1.713466e-07 -2.7749929e-06)
(1.0070391e-05 -3.0304435e-06 -2.8035424e-06)
(8.8456234e-06 -7.6761649e-06 -2.4615973e-06)
(4.2289562e-06 -1.4084901e-05 -3.2693051e-06)
(8.0725819e-06 2.8190929e-06 8.4615114e-07)
(9.2368931e-06 2.5271674e-06 -6.7801482e-07)
(1.0347681e-05 -8.7649784e-07 -3.4002885e-07)
(8.7783264e-06 -6.8087631e-06 4.7869151e-07)
(3.113456e-06 -1.270792e-05 -2.8570245e-08)
(6.5531434e-06 1.5565652e-06 2.2185623e-06)
(8.922416e-06 3.824791e-06 1.9083443e-06)
(1.1227097e-05 -2.6588549e-07 3.3055789e-06)
(9.1570821e-06 -7.7721238e-06 4.8379111e-06)
(1.8561984e-06 -1.3908196e-05 4.653477e-06)
(6.8174967e-06 2.5135901e-08 2.1896439e-06)
(1.032391e-05 3.3848456e-06 4.4388923e-06)
(1.3277248e-05 -2.7064449e-06 7.193301e-06)
(1.0126224e-05 -1.2456442e-05 9.4654393e-06)
(2.9539635e-07 -1.9302686e-05 9.7433333e-06)
)
;
    }
    procBoundary13to12
    {
        type            processor;
        value           nonuniform List<vector> 
25
(
(8.5945737e-06 2.5677827e-06 -6.0904492e-08)
(6.2105094e-06 1.8344572e-06 1.4455523e-07)
(4.4301635e-06 1.2954854e-06 1.7211831e-07)
(3.1219671e-06 9.0950656e-07 1.4662848e-07)
(2.1675686e-06 6.2419778e-07 1.0946069e-07)
(7.5734043e-06 2.8681833e-06 5.8991567e-07)
(5.6861978e-06 1.8544661e-06 3.7981677e-07)
(4.1560798e-06 1.2638118e-06 2.4831774e-07)
(2.968273e-06 8.6980142e-07 1.6566486e-07)
(2.0758462e-06 5.7771139e-07 1.1872556e-07)
(6.8244423e-06 2.0916109e-06 1.243082e-06)
(5.3733544e-06 1.4928592e-06 6.0102002e-07)
(4.0223924e-06 1.0813334e-06 3.161425e-07)
(2.9083372e-06 7.7991438e-07 1.7571411e-07)
(2.0475027e-06 5.2384521e-07 1.1217559e-07)
(6.6529595e-06 6.141362e-07 1.2634196e-06)
(5.4054605e-06 9.2752652e-07 5.7011842e-07)
(4.0914448e-06 8.3850588e-07 2.8417672e-07)
(2.9722868e-06 6.6583451e-07 1.4944426e-07)
(2.0945482e-06 4.6551313e-07 7.3138409e-08)
(7.1492213e-06 -5.0170022e-07 4.7552155e-07)
(5.7972055e-06 5.136164e-07 2.4851232e-07)
(4.3635872e-06 6.6065928e-07 1.3607246e-07)
(3.1546223e-06 5.6887607e-07 8.1842996e-08)
(2.201762e-06 4.1887759e-07 1.2072451e-08)
)
;
    }
    procBoundary13to14
    {
        type            processor;
        value           nonuniform List<vector> 
25
(
(-4.7738158e-06 -1.3468131e-05 -2.9266553e-06)
(-3.8777459e-06 -8.0956784e-06 -1.4883632e-06)
(-2.8521812e-06 -5.0303941e-06 -7.5314211e-07)
(-2.0181999e-06 -3.1987057e-06 -3.78444e-07)
(-1.4326242e-06 -2.0491559e-06 -2.0678398e-07)
(-4.5699059e-06 -1.13174e-05 -2.2118612e-06)
(-3.7061639e-06 -7.0801731e-06 -1.0995555e-06)
(-2.771905e-06 -4.5144439e-06 -5.6008571e-07)
(-1.9850566e-06 -2.9307322e-06 -2.837657e-07)
(-1.3953041e-06 -1.9198728e-06 -1.3688337e-07)
(-4.9774082e-06 -9.9143004e-06 -8.4120156e-07)
(-3.8923745e-06 -6.4439028e-06 -3.817669e-07)
(-2.8761066e-06 -4.2146043e-06 -1.8441325e-07)
(-2.0467388e-06 -2.7755034e-06 -9.4366295e-08)
(-1.425493e-06 -1.8416916e-06 -4.1605348e-08)
(-6.2361571e-06 -9.8051009e-06 1.0388276e-06)
(-4.5329932e-06 -6.4233848e-06 5.3726878e-07)
(-3.2040573e-06 -4.2270433e-06 2.7770276e-07)
(-2.2237876e-06 -2.7879243e-06 1.3728174e-07)
(-1.525662e-06 -1.8434796e-06 7.1314776e-08)
(-8.2897253e-06 -1.1396883e-05 3.053226e-06)
(-5.5664339e-06 -7.2050276e-06 1.4630603e-06)
(-3.7270847e-06 -4.6145913e-06 7.1528685e-07)
(-2.5017174e-06 -2.9818913e-06 3.5733265e-07)
(-1.6765142e-06 -1.9333245e-06 1.8013032e-07)
)
;
    }
    procBoundary13to16
    {
        type            processor;
        value           nonuniform List<vector> 
25
(
(1.5026756e-06 -1.7386792e-07 1.6299499e-08)
(1.2869637e-06 -7.4389223e-07 -4.8719629e-08)
(8.7260936e-07 -1.2124645e-06 -1.0043469e-07)
(2.8759569e-07 -1.5082724e-06 -1.337687e-07)
(-3.6733801e-07 -1.5543853e-06 -1.3734324e-07)
(1.4651689e-06 -1.6698578e-07 5.2857597e-08)
(1.2434925e-06 -7.0954823e-07 2.0294637e-08)
(8.373283e-07 -1.1579605e-06 -1.039741e-08)
(2.6573115e-07 -1.4399725e-06 -3.8660679e-08)
(-3.7834863e-07 -1.4797982e-06 -5.7186471e-08)
(1.4576579e-06 -1.8213269e-07 7.8460241e-08)
(1.2237087e-06 -7.1562665e-07 8.0591667e-08)
(8.1365405e-07 -1.1544597e-06 7.1811367e-08)
(2.4080663e-07 -1.4256352e-06 5.1244869e-08)
(-4.0497881e-07 -1.4528248e-06 2.1578991e-08)
(1.4822447e-06 -2.2447421e-07 8.2848096e-08)
(1.2368436e-06 -7.6091122e-07 1.2791516e-07)
(8.079815e-07 -1.2033751e-06 1.4804958e-07)
(2.1549877e-07 -1.4717113e-06 1.4306316e-07)
(-4.4756661e-07 -1.4815038e-06 1.0670576e-07)
(1.5410964e-06 -2.8079807e-07 6.4630864e-08)
(1.2889101e-06 -8.4115522e-07 1.419483e-07)
(8.2880205e-07 -1.2997118e-06 1.8662305e-07)
(1.9946281e-07 -1.5688315e-06 2.0002127e-07)
(-5.0239305e-07 -1.5596288e-06 1.7180922e-07)
)
;
    }
    procBoundary13to22
    {
        type            processor;
        value           nonuniform List<vector> 
25
(
(8.7953252e-06 -1.0758024e-06 7.6510286e-07)
(9.8080425e-06 -3.3900102e-06 2.7430106e-06)
(9.3411738e-06 -8.3045676e-06 4.5784127e-06)
(5.4686222e-06 -1.4090811e-05 5.8135642e-06)
(-2.0006899e-06 -1.7355495e-05 5.9874627e-06)
(6.739377e-06 -1.084883e-06 5.464888e-07)
(6.6973078e-06 -3.3427214e-06 1.5033421e-06)
(5.5528431e-06 -6.3846729e-06 2.3763251e-06)
(2.6561871e-06 -9.2909547e-06 2.9142204e-06)
(-1.8604707e-06 -1.0513869e-05 2.8875784e-06)
(4.8645264e-06 -9.0193567e-07 3.4428832e-07)
(4.5082526e-06 -2.6820412e-06 8.3372908e-07)
(3.3929405e-06 -4.5850104e-06 1.2530625e-06)
(1.3394265e-06 -6.1112359e-06 1.4943581e-06)
(-1.4710591e-06 -6.5418757e-06 1.439055e-06)
(3.3854993e-06 -6.8689131e-07 1.7810814e-07)
(3.0142331e-06 -1.9731977e-06 4.5714103e-07)
(2.1236485e-06 -3.1703743e-06 6.7694417e-07)
(6.9932187e-07 -4.0123977e-06 7.876812e-07)
(-1.0820057e-06 -4.141355e-06 7.3539243e-07)
(2.3494941e-06 -4.9414817e-07 9.4142789e-08)
(2.0247696e-06 -1.3776361e-06 2.4904595e-07)
(1.3537405e-06 -2.1495455e-06 3.7228532e-07)
(3.6844577e-07 -2.6352301e-06 4.2519421e-07)
(-7.8174215e-07 -2.6481824e-06 3.9051136e-07)
)
;
    }
}


// ************************************************************************* //
