# Particle coordinates for 1 sphere with diameter 10 mm.
1 atom types
1 atoms
0.0000000000000000e+00 1.5000000000000000e-03 xlo xhi
0.0000000000000000e+00 1.5000000000000000e-03 ylo yhi
0.0000000000000000e+00 2.5000000000000001e-03 zlo zhi

#  1 molecule-tag atom-type q x y z nx ny nz  (nx,ny,nz are optional)
Atoms

1 1 3.5e-04 2.65e+03 1.1e-03 0.7e-04 1.2e-03

Velocities

1 0 0 0 0 0 0
