/*--------------------------------*- C++ -*----------------------------------*\
| =========                 |                                                 |
| \\      /  F ield         | OpenFOAM: The Open Source CFD Toolbox           |
|  \\    /   O peration     | Version:  3.0.1                                 |
|   \\  /    A nd           | Web:      www.OpenFOAM.org                      |
|    \\/     M anipulation  |                                                 |
\*---------------------------------------------------------------------------*/
FoamFile
{
    version     2.0;
    format      ascii;
    class       surfaceScalarField;
    location    "0.2";
    object      phi;
}
// * * * * * * * * * * * * * * * * * * * * * * * * * * * * * * * * * * * * * //

dimensions      [0 3 -1 0 0 0 0];

internalField   nonuniform List<scalar> 
300
(
-0.0021769052
0.00069032448
-5.12261e-05
-0.0014345819
0.0014274771
-5.0867992e-05
-0.00045516078
0.0018769194
-5.1331534e-05
0.00057772169
0.0019737043
-3.9006881e-05
0.0017268968
-1.8652578e-06
-0.0014413726
0.0004159551
-1.7663311e-05
-0.00098764621
0.00084724688
-2.8489043e-05
-0.000360325
0.0011243158
-2.6350022e-05
0.00032974535
0.0012036443
-9.3424744e-06
0.0010760263
1.6980582e-05
-0.0010108165
0.00022347258
-1.4401341e-05
-0.0007117936
0.00047472969
-1.35649e-05
-0.00028196608
0.00064435476
-7.3292371e-06
0.00020146977
0.00070218191
5.6706973e-06
0.00063984464
2.3995838e-05
-0.00075989335
9.5944239e-05
-1.5941524e-05
-0.00054253623
0.00021848283
-9.3620225e-06
-0.00022435113
0.0002993295
-4.5573062e-06
0.00013855635
0.00032735685
4.0435447e-06
0.00030136513
1.749373e-05
-0.0006372121
-1.4208085e-05
-0.00046142332
-1.2976504e-05
-0.00019619801
-9.4416672e-06
0.00011232261
-1.9212725e-07
1.3144021e-05
-0.002176394
0.00072393452
9.7015367e-05
-0.0014354501
0.0014496481
0.00015167598
-0.00044289575
0.0019014303
0.00017159485
0.00061469054
0.0020031596
0.00016377375
0.0017457512
0.00012730012
-0.0014521014
0.00041925212
5.9753688e-05
-0.00098555458
0.00086162395
8.7900999e-05
-0.00034313572
0.0011431574
9.9892217e-05
0.00035634076
0.001218474
9.9482929e-05
0.0010828228
8.3474009e-05
-0.0010103189
0.00022197509
3.4872718e-05
-0.0007051039
0.0004791914
5.4089787e-05
-0.00026882234
0.00064694662
6.3053146e-05
0.00022011916
0.00070047067
6.530446e-05
0.00063280015
5.9316247e-05
-0.00075339947
9.8287511e-05
2.5591156e-05
-0.00053772945
0.00021483702
3.6856505e-05
-0.00021575746
0.00029376181
4.2420827e-05
0.00015214269
0.00032211548
4.4820536e-05
0.00029339302
4.0938861e-05
-0.0006366594
2.3424326e-05
-0.00045863742
2.9793076e-05
-0.00018735285
3.4753904e-05
0.00012331349
3.6281495e-05
3.0934189e-05
-0.0021224195
0.00068691234
0.00023075794
-0.0014149622
0.001386367
0.00032781255
-0.00045071285
0.0018295103
0.00036513666
0.00057813197
0.0019387257
0.0003358511
0.0017017192
0.00024929591
-0.0014241674
0.00039450565
0.00012928263
-0.00097344413
0.00082802561
0.00018787844
-0.00034352618
0.0011049623
0.00020991883
0.00034015168
0.001184224
0.00019488633
0.0010585873
0.00015126805
-0.00099113099
0.00021265562
8.0420899e-05
-0.00069621527
0.00046192366
0.00011578174
-0.0002665837
0.00062608225
0.00012910353
0.0002140145
0.00067996684
0.00012054408
0.00061445575
9.2887834e-05
-0.00074214275
9.6110038e-05
6.604752e-05
-0.00053224824
0.00020772582
8.4914122e-05
-0.00021338141
0.00028595394
9.1098859e-05
0.00014827029
0.00031359609
8.0760608e-05
0.00028346182
5.57761e-05
-0.00063031799
6.3354744e-05
-0.00045372645
7.4615222e-05
-0.00018583693
7.589054e-05
0.00011807104
6.2346594e-05
3.6654983e-05
-0.0020254392
0.00058566129
0.00030203832
-0.0013777368
0.0012464594
0.000427324
-0.0004801167
0.0016741127
0.00047667477
0.00049161449
0.0017976587
0.00043884327
0.0016036009
0.00033540874
-0.0013656234
0.00034571553
0.00016768793
-0.00095155011
0.00075602882
0.00024467077
-0.00035863016
0.0010252626
0.00027441664
0.00029649952
0.0011097897
0.0002539823
0.0010000341
0.00020163571
-0.00095573365
0.00019833864
0.00011243994
-0.00068307367
0.00043096211
0.00015735033
-0.00027518108
0.00058731366
0.00017194923
0.00018628591
0.00064011726
0.00015324235
0.0005772795
0.00011468631
-0.00072334215
9.3455242e-05
9.8816652e-05
-0.00052612922
0.00019728064
0.0001217379
-0.0002237206
0.00027045108
0.00012232339
0.00012324562
0.00029521941
9.7765275e-05
0.00026441893
5.9943423e-05
-0.00061925293
9.8522865e-05
-0.00045240081
0.00010719926
-0.00019934567
9.8540742e-05
9.2425825e-05
7.0744986e-05
3.2812381e-05
-0.001899913
0.0004515679
-0.0013282046
0.0010639145
-0.00051819397
0.0014720231
0.00038807985
0.0016127142
0.0014696333
-0.0012884431
0.00029061802
-0.00092164851
0.00066886336
-0.00037909766
0.00092294782
0.00024404264
0.0010090773
0.00091301292
-0.00091063839
0.00018494037
-0.00066818847
0.00039624061
-0.00029382248
0.00053800267
0.00014749705
0.00058514163
0.00052280343
-0.00069948725
9.3335847e-05
-0.00052540834
0.00018408511
-0.0002483089
0.00024720964
8.4998951e-05
0.00026855204
0.00023733462
-0.000608125
-0.00046170689
-0.0002275871
5.3859086e-05
)
;

boundaryField
{
    movingWall
    {
        type            calculated;
        value           uniform 0;
    }
    CPLReceiveMD
    {
        type            calculated;
        value           nonuniform 0();
    }
    streamwiseIn
    {
        type            cyclic;
        value           nonuniform 0();
    }
    streamwiseOut
    {
        type            cyclic;
        value           nonuniform 0();
    }
    front
    {
        type            cyclic;
        value           nonuniform 0();
    }
    back
    {
        type            cyclic;
        value           nonuniform 0();
    }
    procBoundary8to5
    {
        type            processor;
        value           nonuniform List<scalar> 
25
(
-0.001102657
-0.00231859
-0.0030440601
-0.0031844219
-0.0027831759
-0.0011497462
-0.0023687899
-0.00309028
-0.0032283118
-0.002820507
-0.0010613455
-0.0022451689
-0.0029565726
-0.00311567
-0.002745559
-0.00087110049
-0.0019814886
-0.0026772934
-0.0028736037
-0.0025777052
-0.00062696325
-0.0016401225
-0.002314753
-0.0025580032
-0.0023656171
)
;
    }
    procBoundary8to6throughstreamwiseOut
    {
        type            processorCyclic;
        value           nonuniform List<scalar> 
25
(
0.0014776405
0.00097754647
0.00066136731
0.00046963053
0.00037552648
0.0014951987
0.00098590584
0.00066911157
0.0004823342
0.00039200542
0.0014400877
0.00095405789
0.00064986905
0.00047200584
0.00038694092
0.0013156846
0.00088383775
0.0006084542
0.00044471717
0.00036586946
0.001142934
0.00078144883
0.00054745389
0.00040327724
0.00033203007
)
;
    }
    procBoundary8to7
    {
        type            processor;
        value           nonuniform List<scalar> 
25
(
0.0025605762
0.0016782294
0.001140008
0.00082939739
0.0006837355
0.0025666916
0.0016711477
0.0011367377
0.00083329017
0.00069184945
0.0025105725
0.0016305074
0.0011072893
0.00081336712
0.00067927065
0.0023851159
0.0015546811
0.001056283
0.0007758
0.00064868974
0.0022183685
0.0014698542
0.0010020373
0.00072949521
0.00060169162
)
;
    }
    procBoundary8to17
    {
        type            processor;
        value           nonuniform List<scalar> 
25
(
0.00037464701
0.00046356222
0.00048883348
0.00043135486
0.00029044348
0.0002180941
0.00027269801
0.00029149122
0.00026209052
0.00017714362
0.00013113171
0.00016821429
0.00017965026
0.00016073421
0.00010690993
8.211871e-05
0.00011282428
0.00011910801
0.00010272539
6.3067424e-05
5.8819024e-05
8.6005718e-05
8.9220321e-05
7.4451237e-05
4.0645761e-05
)
;
    }
    procBoundary8to26throughfront
    {
        type            processorCyclic;
        value           nonuniform List<scalar> 
25
(
0.0002029789
0.00012229431
7.1416107e-05
4.1030194e-05
2.398171e-05
0.00024256908
0.00013726736
8.0649589e-05
5.137034e-05
3.4075441e-05
0.00025660057
0.00013935199
7.8172972e-05
4.8140519e-05
3.2807148e-05
0.00022785833
0.00012288903
6.4425441e-05
3.4304817e-05
1.9903073e-05
0.00014698929
8.3907279e-05
3.9263361e-05
9.2233603e-06
-7.1678662e-06
)
;
    }
}


// ************************************************************************* //
