/*--------------------------------*- C++ -*----------------------------------*\
| =========                 |                                                 |
| \\      /  F ield         | OpenFOAM: The Open Source CFD Toolbox           |
|  \\    /   O peration     | Version:  3.0.1                                 |
|   \\  /    A nd           | Web:      www.OpenFOAM.org                      |
|    \\/     M anipulation  |                                                 |
\*---------------------------------------------------------------------------*/
FoamFile
{
    version     2.0;
    format      ascii;
    class       volVectorField;
    location    "0.2";
    object      U;
}
// * * * * * * * * * * * * * * * * * * * * * * * * * * * * * * * * * * * * * //

dimensions      [0 1 -1 0 0 0 0];

internalField   nonuniform List<vector> 
125
(
(-5.9247096e-06 2.2475022e-06 -3.1979825e-07)
(-4.5189708e-06 4.6861836e-06 -3.6588185e-07)
(-2.3676089e-06 6.150342e-06 -3.8444015e-07)
(1.4865908e-07 6.4429187e-06 -3.3331529e-07)
(2.5670472e-06 5.6304054e-06 -1.8592536e-07)
(-3.9016549e-06 1.3872741e-06 -1.7657476e-07)
(-3.0390585e-06 2.8456478e-06 -2.0702429e-07)
(-1.6878477e-06 3.7511929e-06 -2.0700343e-07)
(-4.1543976e-08 3.9694106e-06 -1.6507566e-07)
(1.6319246e-06 3.4995323e-06 -8.2661146e-08)
(-2.6900405e-06 8.0081559e-07 -1.0792096e-07)
(-2.155052e-06 1.653358e-06 -1.1874745e-07)
(-1.2438461e-06 2.2107255e-06 -1.0687676e-07)
(-1.0300151e-07 2.3813677e-06 -7.328787e-08)
(1.0765732e-06 2.1435152e-06 -1.825641e-08)
(-1.9874635e-06 3.9953235e-07 -7.1258741e-08)
(-1.6291484e-06 8.668923e-07 -7.6052482e-08)
(-9.5983776e-07 1.179788e-06 -6.5969997e-08)
(-1.0875412e-07 1.2868405e-06 -3.7834396e-08)
(7.5879411e-07 1.1764495e-06 1.07432e-08)
(-1.6516054e-06 1.1992132e-07 -4.6797404e-08)
(-1.3740407e-06 2.7320467e-07 -5.8869348e-08)
(-8.2324357e-07 3.7423889e-07 -5.3722304e-08)
(-1.0590834e-07 4.0913629e-07 -2.6242367e-08)
(6.0876455e-07 3.7666721e-07 2.2427038e-08)
(-5.9314786e-06 2.3474566e-06 5.7523732e-08)
(-4.5191265e-06 4.7761553e-06 1.2611488e-07)
(-2.3534335e-06 6.2396138e-06 1.507841e-07)
(2.1039533e-07 6.5355709e-06 1.5631065e-07)
(2.6351709e-06 5.7020944e-06 1.5743722e-07)
(-3.9058615e-06 1.4325852e-06 5.2527355e-08)
(-3.0498127e-06 2.8908195e-06 7.4272379e-08)
(-1.6639293e-06 3.8057303e-06 9.2035808e-08)
(1.3607421e-08 4.0250728e-06 1.1294942e-07)
(1.6759747e-06 3.5323068e-06 1.2674326e-07)
(-2.6850468e-06 8.0293501e-07 2.535185e-08)
(-2.1459815e-06 1.6769995e-06 5.0206471e-08)
(-1.2191802e-06 2.2378058e-06 6.967828e-08)
(-6.302815e-08 2.3978468e-06 8.8845798e-08)
(1.1098709e-06 2.1430455e-06 1.0495953e-07)
(-1.9841247e-06 4.0084963e-07 1.2033407e-08)
(-1.6149418e-06 8.681032e-07 3.4363518e-08)
(-9.4308181e-07 1.1762268e-06 4.7269639e-08)
(-8.1152744e-08 1.2780909e-06 6.1023957e-08)
(7.9168574e-07 1.1574983e-06 7.3022365e-08)
(-1.6611275e-06 1.2296747e-07 1.2357209e-08)
(-1.3698511e-06 2.6869782e-07 2.0960441e-08)
(-8.0854556e-07 3.6727756e-07 3.071842e-08)
(-8.1334434e-08 4.0258134e-07 4.3791673e-08)
(6.4298293e-07 3.6668982e-07 5.0592007e-08)
(-5.7937361e-06 2.1899241e-06 4.0938225e-07)
(-4.4257105e-06 4.542397e-06 5.9844727e-07)
(-2.3374131e-06 5.9831283e-06 6.7096293e-07)
(1.553122e-07 6.3149823e-06 6.247349e-07)
(2.5205845e-06 5.5540471e-06 4.7122039e-07)
(-3.8199623e-06 1.3551022e-06 2.3620503e-07)
(-2.99955e-06 2.7697394e-06 3.4462062e-07)
(-1.6491706e-06 3.6700871e-06 3.8735173e-07)
(-6.8365193e-09 3.9019458e-06 3.6814492e-07)
(1.6160086e-06 3.4470546e-06 2.9361483e-07)
(-2.6240723e-06 7.6032164e-07 1.4412048e-07)
(-2.1107256e-06 1.6134491e-06 2.1258802e-07)
(-1.2052068e-06 2.1659593e-06 2.4026574e-07)
(-6.7720261e-08 2.3294422e-06 2.3239746e-07)
(1.078255e-06 2.0897943e-06 1.9032168e-07)
(-1.9450327e-06 3.8653433e-07 1.1456404e-07)
(-1.5939122e-06 8.3765024e-07 1.5227194e-07)
(-9.3317732e-07 1.1408423e-06 1.6691705e-07)
(-8.3001391e-08 1.2418113e-06 1.5702785e-07)
(7.7391896e-07 1.1221135e-06 1.2099046e-07)
(-1.6373976e-06 1.2024066e-07 1.084601e-07)
(-1.3556795e-06 2.5981146e-07 1.3035358e-07)
(-8.0041234e-07 3.5770987e-07 1.3830994e-07)
(-8.6034756e-08 3.9193786e-07 1.2335002e-07)
(6.3006448e-07 3.5427948e-07 8.471055e-08)
(-5.5156197e-06 1.8248951e-06 6.6570147e-07)
(-4.2575459e-06 4.0378153e-06 9.4387664e-07)
(-2.3271459e-06 5.4400454e-06 1.0530431e-06)
(1.0652788e-08 5.8364723e-06 9.6923558e-07)
(2.2569328e-06 5.2219602e-06 7.3135602e-07)
(-3.6519529e-06 1.1673235e-06 3.7067685e-07)
(-2.898666e-06 2.5049603e-06 5.406816e-07)
(-1.640405e-06 3.3750331e-06 6.0583075e-07)
(-8.0129484e-08 3.6327354e-06 5.6163018e-07)
(1.4736333e-06 3.2514081e-06 4.4143587e-07)
(-2.5159284e-06 6.8129401e-07 2.406746e-07)
(-2.0498362e-06 1.4846508e-06 3.4159279e-07)
(-1.1993708e-06 2.0173711e-06 3.7686395e-07)
(-1.1297221e-07 2.1867297e-06 3.4295109e-07)
(9.918294e-07 1.9704211e-06 2.5997431e-07)
(-1.874396e-06 3.6520351e-07 2.0583453e-07)
(-1.5625888e-06 7.85904e-07 2.5941832e-07)
(-9.383259e-07 1.0743246e-06 2.6815675e-07)
(-1.2707933e-07 1.1691065e-06 2.2454166e-07)
(7.0859436e-07 1.0519488e-06 1.4564091e-07)
(-1.5851376e-06 1.1688048e-07 2.0228124e-07)
(-1.3400013e-06 2.4681943e-07 2.302376e-07)
(-8.1554912e-07 3.3872927e-07 2.2037544e-07)
(-1.3493382e-07 3.6897295e-07 1.6815477e-07)
(5.7179839e-07 3.3047945e-07 8.7882648e-08)
(-5.1500554e-06 1.3514295e-06 8.4579232e-07)
(-4.0383688e-06 3.3829701e-06 1.1134833e-06)
(-2.3120542e-06 4.7345235e-06 1.2073004e-06)
(-1.6637488e-07 5.2110576e-06 1.0885595e-06)
(1.9115672e-06 4.7897047e-06 7.8309748e-07)
(-3.4495619e-06 9.300753e-07 4.8266135e-07)
(-2.7643961e-06 2.1674555e-06 6.466632e-07)
(-1.6282221e-06 2.9939079e-06 7.0772472e-07)
(-1.712314e-07 3.2756613e-06 6.4556796e-07)
(1.2799793e-06 2.9756729e-06 4.7378729e-07)
(-2.3916734e-06 5.9547931e-07 3.0414084e-07)
(-1.9745362e-06 1.3321858e-06 4.0701649e-07)
(-1.2038484e-06 1.8282853e-06 4.4001434e-07)
(-1.846099e-07 1.9923538e-06 3.9315295e-07)
(8.6706494e-07 1.7939994e-06 2.7745969e-07)
(-1.786437e-06 3.4817363e-07 2.2520042e-07)
(-1.53159e-06 7.2636037e-07 2.9291499e-07)
(-9.6805398e-07 9.8443924e-07 3.0313925e-07)
(-2.0551723e-07 1.0671034e-06 2.5197536e-07)
(6.0916195e-07 9.5009817e-07 1.5473998e-07)
(-1.5123015e-06 1.1672272e-07 1.9339847e-07)
(-1.3375853e-06 2.3069881e-07 2.405967e-07)
(-8.6249517e-07 3.1001843e-07 2.3696935e-07)
(-2.1852755e-07 3.3564589e-07 1.8337849e-07)
(4.8150614e-07 2.9660636e-07 9.325359e-08)
)
;

boundaryField
{
    movingWall
    {
        type            fixedValue;
        value           uniform (0 0 0);
    }
    CPLReceiveMD
    {
        type            fixedValue;
        value           nonuniform 0();
    }
    streamwiseIn
    {
        type            cyclic;
    }
    streamwiseOut
    {
        type            cyclic;
    }
    front
    {
        type            cyclic;
    }
    back
    {
        type            cyclic;
    }
    procBoundary8to5
    {
        type            processor;
        value           nonuniform List<vector> 
25
(
(-9.2061509e-06 3.7635637e-06 -5.4100277e-07)
(-6.9418982e-06 7.6827562e-06 -6.8589115e-07)
(-3.4445827e-06 1.0008423e-05 -6.8788566e-07)
(4.7839267e-07 1.039138e-05 -5.8153931e-07)
(4.1677944e-06 8.9310496e-06 -4.0983881e-07)
(-9.255437e-06 3.9185667e-06 1.1010548e-07)
(-6.9419699e-06 7.8728511e-06 2.1805892e-07)
(-3.4233448e-06 1.0155452e-05 2.5924948e-07)
(5.5112684e-07 1.0500336e-05 2.4088582e-07)
(4.2406442e-06 9.0562558e-06 2.0310151e-07)
(-8.9695383e-06 3.6294857e-06 7.5876657e-07)
(-6.7927542e-06 7.4339362e-06 1.0829606e-06)
(-3.4217558e-06 9.6648771e-06 1.1869202e-06)
(4.2224469e-07 1.0082892e-05 1.0672436e-06)
(4.0366534e-06 8.7767657e-06 7.7374904e-07)
(-8.397047e-06 3.0033881e-06 1.2091715e-06)
(-6.5138163e-06 6.5005663e-06 1.7001085e-06)
(-3.4390618e-06 8.660538e-06 1.8544356e-06)
(1.3795571e-07 9.2110187e-06 1.6655549e-06)
(3.6032142e-06 8.1551786e-06 1.2057783e-06)
(-7.658328e-06 2.2022367e-06 1.2840039e-06)
(-6.1474901e-06 5.3153546e-06 1.9014531e-06)
(-3.4563095e-06 7.3888915e-06 2.1217494e-06)
(-2.2641261e-07 8.0846647e-06 1.9518551e-06)
(3.0554409e-06 7.352395e-06 1.4925491e-06)
)
;
    }
    procBoundary8to6throughstreamwiseOut
    {
        type            processorCyclic;
        value           nonuniform List<vector> 
25
(
(4.4860488e-06 3.907049e-06 -7.7845405e-08)
(3.01488e-06 2.4789366e-06 3.726846e-09)
(2.0857892e-06 1.508237e-06 3.2024629e-08)
(1.5081751e-06 8.1888989e-07 3.5052669e-08)
(1.2187044e-06 2.5900715e-07 2.9180057e-08)
(4.5466942e-06 3.9709014e-06 1.0984795e-07)
(3.0296179e-06 2.4997728e-06 9.7033388e-08)
(2.0816482e-06 1.5135577e-06 9.052758e-08)
(1.5149698e-06 8.1107481e-07 7.6148809e-08)
(1.2454792e-06 2.5379239e-07 6.5091603e-08)
(4.4082876e-06 3.8943375e-06 2.4649674e-07)
(2.9418992e-06 2.4596162e-06 1.658035e-07)
(2.0219713e-06 1.4873525e-06 1.1435599e-07)
(1.4803323e-06 7.9349497e-07 7.393648e-08)
(1.2241505e-06 2.4799836e-07 5.2165483e-08)
(4.1083553e-06 3.7068914e-06 3.6021826e-07)
(2.7680339e-06 2.367632e-06 2.2560085e-07)
(1.9172863e-06 1.4216907e-06 1.3176107e-07)
(1.4116708e-06 7.4894006e-07 5.9784646e-08)
(1.1695424e-06 2.3208185e-07 1.9596434e-08)
(3.7061282e-06 3.435596e-06 5.1002077e-07)
(2.5348539e-06 2.231159e-06 2.9692299e-07)
(1.7802597e-06 1.3215363e-06 1.6121857e-07)
(1.3199923e-06 6.8138987e-07 7.0836998e-08)
(1.0972628e-06 2.0787549e-07 2.4531366e-08)
)
;
    }
    procBoundary8to7
    {
        type            processor;
        value           nonuniform List<vector> 
25
(
(-6.2277064e-06 -6.1831245e-07 -1.2772354e-07)
(-4.0226647e-06 -3.8902134e-07 -5.4830624e-08)
(-2.7077314e-06 -2.6083332e-07 -4.0927128e-08)
(-1.9913874e-06 -1.7082016e-07 -5.3505582e-08)
(-1.6730736e-06 -6.1875826e-08 -6.3089422e-08)
(-6.2659065e-06 -5.7342018e-07 -4.8586848e-09)
(-4.0415756e-06 -3.5561231e-07 -7.4202721e-09)
(-2.7264051e-06 -2.4473724e-07 -1.576174e-08)
(-2.0004925e-06 -1.5508995e-07 -8.0673046e-09)
(-1.6730033e-06 -5.3527045e-08 6.752698e-09)
(-6.094508e-06 -6.0717905e-07 1.8258836e-07)
(-3.9391592e-06 -3.9992439e-07 9.0711927e-08)
(-2.6597615e-06 -2.6148036e-07 4.3469653e-08)
(-1.9459438e-06 -1.4831306e-07 4.2543251e-08)
(-1.6238612e-06 -4.7070378e-08 5.4363716e-08)
(-5.7184948e-06 -7.0727883e-07 3.0019602e-07)
(-3.7243739e-06 -4.9473102e-07 1.7028124e-07)
(-2.5204486e-06 -2.9290593e-07 1.091939e-07)
(-1.8366999e-06 -1.4420611e-07 1.008226e-07)
(-1.5270373e-06 -4.1716742e-08 1.0514151e-07)
(-5.2322636e-06 -8.2579592e-07 2.2766644e-07)
(-3.4510103e-06 -5.9092651e-07 1.4550561e-07)
(-2.3371829e-06 -3.3093901e-07 1.1541052e-07)
(-1.6880463e-06 -1.5237635e-07 1.1407014e-07)
(-1.3898601e-06 -4.2755746e-08 1.2023829e-07)
)
;
    }
    procBoundary8to17
    {
        type            processor;
        value           nonuniform List<vector> 
25
(
(-4.6298028e-06 1.0235525e-06 7.6725177e-07)
(-3.8960378e-06 2.7830255e-06 1.0465072e-06)
(-2.3520697e-06 4.0260207e-06 1.1417434e-06)
(-4.1355014e-07 4.5301851e-06 1.0439626e-06)
(1.678394e-06 4.2031984e-06 7.6673303e-07)
(-3.1507953e-06 6.2567201e-07 4.5876663e-07)
(-2.6736027e-06 1.7984935e-06 6.1711715e-07)
(-1.6415002e-06 2.6077471e-06 6.768382e-07)
(-3.1406692e-07 2.9373288e-06 6.2396575e-07)
(1.1249883e-06 2.7457703e-06 4.5804711e-07)
(-2.2243224e-06 4.2383307e-07 2.8798505e-07)
(-1.9139627e-06 1.1309026e-06 3.7889236e-07)
(-1.2132343e-06 1.6127857e-06 4.1221729e-07)
(-2.7552686e-07 1.7931371e-06 3.7769121e-07)
(7.5989502e-07 1.6513738e-06 2.7029627e-07)
(-1.6955511e-06 2.5448819e-07 1.8008799e-07)
(-1.4846499e-06 6.1954855e-07 2.4292839e-07)
(-9.7926552e-07 8.7136538e-07 2.6385775e-07)
(-2.7547861e-07 9.5942081e-07 2.3579695e-07)
(5.27456e-07 8.6781847e-07 1.5794769e-07)
(-1.4647792e-06 8.5116193e-08 1.1616754e-07)
(-1.2964304e-06 1.9457426e-07 1.7282057e-07)
(-8.7276733e-07 2.7265365e-07 1.8996058e-07)
(-2.7864958e-07 3.0047353e-07 1.6492158e-07)
(4.1295126e-07 2.6907714e-07 1.0434786e-07)
)
;
    }
    procBoundary8to26throughfront
    {
        type            processorCyclic;
        value           nonuniform List<vector> 
25
(
(-5.6933203e-06 1.9830286e-06 -6.1489351e-07)
(-3.7536679e-06 1.220708e-06 -3.2085449e-07)
(-2.6072264e-06 6.97619e-07 -1.797645e-07)
(-1.9615778e-06 3.3974046e-07 -1.3809043e-07)
(-1.6653476e-06 9.8528168e-08 -1.2789643e-07)
(-4.4544846e-06 4.2972884e-06 -7.7600244e-07)
(-3.0193841e-06 2.6436851e-06 -4.1889693e-07)
(-2.1470257e-06 1.5460277e-06 -2.4671771e-07)
(-1.6202305e-06 8.0824269e-07 -1.6952606e-07)
(-1.3629262e-06 2.515333e-07 -1.3185426e-07)
(-2.3860001e-06 5.7587316e-06 -8.1309347e-07)
(-1.7058779e-06 3.5281669e-06 -4.5106467e-07)
(-1.2646398e-06 2.0967723e-06 -2.6605575e-07)
(-9.812999e-07 1.1230862e-06 -1.6872977e-07)
(-8.4117254e-07 3.5504145e-07 -1.204788e-07)
(1.188053e-08 6.1191072e-06 -7.2178046e-07)
(-1.1073487e-07 3.7650454e-06 -4.1140902e-07)
(-1.516485e-07 2.2706055e-06 -2.3685065e-07)
(-1.5786594e-07 1.2310491e-06 -1.3440006e-07)
(-1.5748378e-07 3.9098994e-07 -8.4395802e-08)
(2.379701e-06 5.3749168e-06 -5.1381923e-07)
(1.5071722e-06 3.3646379e-06 -3.0140349e-07)
(1.0045584e-06 2.0496411e-06 -1.611641e-07)
(7.1879867e-07 1.1168038e-06 -6.6456935e-08)
(5.8756051e-07 3.5499202e-07 -1.6914824e-08)
)
;
    }
}


// ************************************************************************* //
