/*--------------------------------*- C++ -*----------------------------------*\
| =========                 |                                                 |
| \\      /  F ield         | OpenFOAM: The Open Source CFD Toolbox           |
|  \\    /   O peration     | Version:  3.0.1                                 |
|   \\  /    A nd           | Web:      www.OpenFOAM.org                      |
|    \\/     M anipulation  |                                                 |
\*---------------------------------------------------------------------------*/
FoamFile
{
    version     2.0;
    format      ascii;
    class       surfaceScalarField;
    location    "0.2";
    object      phi;
}
// * * * * * * * * * * * * * * * * * * * * * * * * * * * * * * * * * * * * * //

dimensions      [0 3 -1 0 0 0 0];

internalField   nonuniform List<scalar> 
300
(
0.36463784
-0.052647922
0.021671358
0.4510486
-0.15553894
-0.086495729
0.4319357
-0.0010848951
0.084279659
0.27244375
0.19815958
0.27595526
0.064530145
0.067963355
-0.018465345
-0.022863061
0.030166716
-0.10528107
-0.052746318
0.010551332
-0.10422461
0.011059962
0.04891937
0.024751779
0.088227169
0.086300727
0.04793374
0.030687196
-0.025433876
-0.0076280025
0.021885884
-0.051346903
-0.011101486
0.019587234
-0.042792011
0.015692349
0.03040875
0.012791682
0.043773667
0.038784029
0.033786275
0.019379748
-0.022758735
-0.0013398578
0.013481735
-0.027080923
0.0030328096
0.015872179
-0.018334514
0.014888885
0.018892889
0.0056011343
0.02534456
0.019714912
0.02267619
0.012121264
-0.017908587
0.0078742084
-0.015865477
0.010342037
-0.0087469798
0.011413122
0.0032764415
0.010791798
0.0072970021
0.19690852
-0.047635217
0.067084156
0.10010313
-0.078538565
0.088827913
0.1056183
-0.038683386
0.11740535
0.3016777
0.03716742
0.042683535
0.029376065
-0.15595012
-0.020581186
-0.030909872
0.032863217
-0.069304883
-0.039433449
0.020150992
-0.076150134
-0.0094583158
0.026490083
-0.010183549
0.03205192
0.025435829
0.036907287
-0.018238348
-0.023225217
-0.015797526
0.015159814
-0.040398306
-0.013654654
0.010973591
-0.036486191
0.0033687972
0.013638491
-0.005810277
0.022481602
0.017604045
0.026300453
0.0038761873
-0.020138438
-0.0068487195
0.0080752942
-0.0238828
-0.0022303909
0.0081058846
-0.018032612
0.007129066
0.0092740613
-0.0020146421
0.015907255
0.010321878
0.017709479
0.005420938
-0.015428091
0.004657449
-0.014714812
0.0056264491
-0.0095079387
0.0061588265
-0.00022031323
0.0060076403
0.0039461816
0.21896221
-0.083899741
0.17437371
0.7156991
-0.15523099
-0.25268437
1.2991392
-0.12719002
-0.33889547
1.151111
0.035424906
0.1552341
0.17017865
0.15664401
-0.026515272
-0.04860908
0.027090647
-0.063862678
-0.048230748
-0.049627697
-0.081324653
-0.021808709
-0.061453592
-0.051229009
0.010701637
0.020007332
0.058688841
0.028719301
-0.02657159
-0.022833035
0.0061128938
-0.03790796
-0.016308969
-0.0096259681
-0.033275218
-0.0011955396
-0.011680666
-0.019312002
0.012197678
0.0022040588
0.027788399
0.006519017
-0.020049535
-0.010226019
0.0027521483
-0.022777013
-0.0046247254
-0.000860837
-0.01711603
0.0039486361
-0.0014602334
-0.0069275351
0.011278311
0.0010965106
0.016204421
0.0020175607
-0.014436598
0.0017751299
-0.014198894
0.00092877663
-0.0096544954
0.0006415377
-0.002313151
0.00098427084
0.00098299993
1.2403382
-0.23027564
-0.13157437
0.94625472
0.044972385
-0.0035765649
0.41674133
0.14810205
0.042485893
0.76202539
-0.083690903
-0.10638852
0.049010735
0.028830042
-0.10151523
-0.069504262
-0.029621315
-0.076427717
-0.0082639083
-0.021442207
-0.0011841895
0.027876531
-0.01647566
-0.041620005
0.0014140667
-0.024713268
0.036372596
0.0091797144
-0.041914478
-0.026164931
-0.0073180874
-0.040071693
-0.0075280078
-0.012181607
-0.019492628
0.0090150552
-0.013433101
-0.015034936
0.011814106
-0.012683281
0.023259723
-0.0012323248
-0.023461667
-0.011149893
-0.0019581697
-0.023393654
-0.0028141
-0.0056609988
-0.014589185
0.0060438735
-0.0073460323
-0.0060206568
0.011313511
-0.006995812
0.01516681
-0.0029596493
-0.015170794
-0.00055996228
-0.014484396
-0.0025210763
-0.0093221055
-0.0036402685
-0.0023190176
-0.0035570288
-0.0021780427
0.34294267
-0.12718076
0.39847967
0.017402418
0.310432
0.091871016
0.33506563
-0.01011614
0.0073734047
-0.092655298
-0.047341623
-0.072115488
0.00022199891
-0.0075751911
0.031107685
-0.0089690495
0.019508715
0.023471932
-0.046593496
-0.020805618
-0.041268831
-0.0010274636
-0.018569196
0.015238631
-0.0038758969
0.019651651
0.021505621
-0.027123567
-0.0097603187
-0.025019264
0.00034621255
-0.014188864
0.00984811
-0.0020387843
0.014858311
0.015949211
-0.017119161
-0.015578427
-0.0092270964
-0.00095422351
)
;

boundaryField
{
    movingWall
    {
        type            calculated;
        value           nonuniform 0();
    }
    CPLReceiveMD
    {
        type            calculated;
        value           uniform 0;
    }
    streamwiseIn
    {
        type            cyclic;
        value           nonuniform 0();
    }
    streamwiseOut
    {
        type            cyclic;
        value           nonuniform 0();
    }
    front
    {
        type            cyclic;
        value           nonuniform 0();
    }
    back
    {
        type            cyclic;
        value           nonuniform 0();
    }
    procBoundary11to2
    {
        type            processor;
        value           nonuniform List<scalar> 
25
(
-0.07238301
0.15566694
-0.064105304
-0.31466289
-0.11540343
-0.064270778
-0.02652657
-0.06221189
-0.10538761
-0.05265039
-0.040602379
-0.035374368
-0.043609781
-0.049924066
-0.028282748
-0.022426672
-0.025660756
-0.026895773
-0.025259546
-0.016023889
-0.011823109
-0.015270163
-0.01568933
-0.013800022
-0.0092323022
)
;
    }
    procBoundary11to9throughstreamwiseOut
    {
        type            processorCyclic;
        value           nonuniform List<scalar> 
25
(
0.25550977
0.063371771
0.035771903
0.020446524
0.012791043
0.49616832
0.031224967
0.020406341
0.013379883
0.0087227503
0.66837486
0.013355254
0.0089973336
0.0080469944
0.0061671275
0.840854
-0.0093854549
0.0058729488
0.0070693158
0.0056721953
0.40280459
0.006152951
0.011636863
0.0095672427
0.0069733661
)
;
    }
    procBoundary11to10
    {
        type            processor;
        value           nonuniform List<scalar> 
25
(
-0.26127712
0.02272606
0.028891142
0.025461837
0.019712095
-0.19471696
0.0012611938
0.014982721
0.016638454
0.01434361
-0.24224747
-0.0029355104
0.0099587696
0.012712854
0.011475587
-0.70409146
-0.0025520798
0.012028106
0.01310267
0.011190531
-0.19525823
0.014301468
0.020548984
0.017148287
0.013035429
)
;
    }
    procBoundary11to14
    {
        type            processor;
        value           nonuniform List<scalar> 
25
(
0.00082915795
0.0058789915
0.011967233
0.01617475
0.015002749
-0.0025205618
0.0018099378
0.0071945637
0.011416465
0.01201744
-0.0043945739
-0.00015989489
0.0049262146
0.0089728239
0.010637803
-0.0049490672
-4.2051768e-05
0.0051806483
0.0088173944
0.010301666
-0.0046263684
0.0013276757
0.0071271167
0.010614518
0.011221407
)
;
    }
    procBoundary11to20
    {
        type            processor;
        value           nonuniform List<scalar> 
25
(
-0.15190819
-0.076479367
0.038695645
-0.12087824
-0.046242581
-0.030982124
-0.024836699
-0.020199027
-0.052901067
-0.022025553
-0.0078265269
-0.016157234
-0.02017118
-0.027408202
-0.014760729
-0.0031672751
-0.0091186633
-0.012784101
-0.014308681
-0.0089293035
-0.0019446758
-0.0051380935
-0.0071989722
-0.0075524292
-0.0052540453
)
;
    }
}


// ************************************************************************* //
