/*--------------------------------*- C++ -*----------------------------------*\
| =========                 |                                                 |
| \\      /  F ield         | OpenFOAM: The Open Source CFD Toolbox           |
|  \\    /   O peration     | Version:  3.0.1                                 |
|   \\  /    A nd           | Web:      www.OpenFOAM.org                      |
|    \\/     M anipulation  |                                                 |
\*---------------------------------------------------------------------------*/
FoamFile
{
    version     2.0;
    format      ascii;
    class       volVectorField;
    location    "0.2";
    object      U;
}
// * * * * * * * * * * * * * * * * * * * * * * * * * * * * * * * * * * * * * //

dimensions      [0 1 -1 0 0 0 0];

internalField   nonuniform List<vector> 
125
(
(0.001234361 -7.4320474e-05 9.7206167e-05)
(8.7795567e-05 -0.0002287565 -0.00041596582)
(0.0025364496 -3.8751262e-06 0.0002205841)
(0.00018670314 0.0002857896 0.00082348524)
(0.0006957104 8.8778501e-05 0.00023072816)
(-2.0807469e-05 -0.00010286997 0.00011531167)
(-0.00013386169 -0.0002890998 3.5280538e-05)
(-0.00028144947 1.0023606e-05 0.00014602428)
(-8.4753953e-05 0.00038606456 0.00024910372)
(0.00013858063 0.00014867564 0.00010516695)
(-6.0205322e-05 -3.7850719e-05 7.7720208e-05)
(-9.149657e-05 -7.2541038e-05 6.7668844e-05)
(-0.00012240102 3.3546887e-05 9.4262069e-05)
(-3.8915735e-05 0.00015249602 0.00011223143)
(6.4097374e-05 0.00010186779 6.0010947e-05)
(-5.9248075e-05 -1.0832605e-05 4.4806037e-05)
(-6.2546012e-05 -7.9452216e-06 5.1803834e-05)
(-5.798336e-05 3.82912e-05 5.7856859e-05)
(-1.6595546e-05 8.3331384e-05 5.6502368e-05)
(3.424869e-05 7.0155696e-05 3.5352526e-05)
(-4.6385029e-05 -4.339952e-07 2.4597984e-05)
(-4.2372808e-05 1.1732764e-05 3.199944e-05)
(-3.1125011e-05 3.3619278e-05 3.4064559e-05)
(-7.051306e-06 5.1195457e-05 3.0823232e-05)
(2.0192586e-05 4.6868745e-05 2.0729419e-05)
(0.00047614522 -6.3921556e-05 0.00011074613)
(0.0003921644 -0.00010781801 4.5323799e-06)
(0.0001999153 -5.4250155e-05 0.00025585693)
(0.00056304049 4.8368853e-05 0.00040486552)
(0.00079144216 4.2984994e-05 -0.00010895762)
(-1.8290798e-05 -0.00010256288 7.832161e-05)
(-0.0001066045 -0.00015680699 3.8354249e-05)
(-0.00018661463 -6.5448166e-05 9.7871243e-05)
(-0.00011036668 8.8434772e-05 0.00014183141)
(2.6206597e-05 8.8708998e-05 1.5793589e-05)
(-4.6109203e-05 -5.8333119e-05 4.6095371e-05)
(-7.9354721e-05 -6.5766652e-05 3.8122283e-05)
(-9.7809011e-05 -6.8093224e-06 5.6701568e-05)
(-5.3818165e-05 6.8101472e-05 7.1248886e-05)
(1.9880441e-05 7.8507337e-05 2.9287285e-05)
(-4.5505934e-05 -2.8200343e-05 2.6865401e-05)
(-5.5274778e-05 -1.9422346e-05 2.9949999e-05)
(-5.2996257e-05 1.3371669e-05 3.5723035e-05)
(-2.542388e-05 4.7882746e-05 3.7824269e-05)
(1.4538481e-05 5.4882397e-05 2.2043718e-05)
(-3.6719613e-05 -1.1627926e-05 1.5631531e-05)
(-3.7782781e-05 -3.1989902e-07 1.9952853e-05)
(-3.050402e-05 1.801096e-05 2.2124319e-05)
(-1.2307583e-05 3.4102515e-05 2.1121065e-05)
(1.0637901e-05 3.710218e-05 1.4109503e-05)
(0.00061894145 -0.00010674812 0.00029984531)
(0.00028179553 -0.00019479793 -0.00020042363)
(0.003284364 -0.00016199403 -0.00027966202)
(0.0035591521 2.2333681e-05 0.00022105259)
(0.0023897808 0.00021352153 -5.2304966e-06)
(-2.9610959e-05 -0.00016752445 7.4611482e-05)
(-0.00011422791 -0.0002553735 -3.6502312e-05)
(-0.00017857649 -0.00018926662 -4.3429342e-05)
(-0.00016593438 5.2026792e-05 5.47909e-05)
(-5.5957977e-05 0.00028691344 1.3043607e-05)
(-4.5534647e-05 -8.9306926e-05 2.6321846e-05)
(-8.0890359e-05 -8.0945276e-05 1.689686e-06)
(-8.9274765e-05 -2.8601374e-05 2.7541334e-06)
(-6.6329797e-05 4.8488679e-05 2.4904818e-05)
(-1.37457e-05 0.00010811786 1.3008619e-05)
(-4.0756927e-05 -4.1296453e-05 1.3321098e-05)
(-5.3688384e-05 -2.6114663e-05 9.0520522e-06)
(-5.0109099e-05 3.7139467e-06 9.8210735e-06)
(-3.0274867e-05 3.3203561e-05 1.4384904e-05)
(1.2879612e-06 5.497791e-05 9.3206937e-06)
(-3.225224e-05 -1.8244011e-05 7.9049083e-06)
(-3.5880023e-05 -5.9173935e-06 8.187911e-06)
(-2.9956801e-05 1.1247942e-05 8.5088088e-06)
(-1.5066124e-05 2.5632567e-05 8.8077117e-06)
(4.7856158e-06 3.3545434e-05 6.1785038e-06)
(0.0025124008 -0.00028928214 5.3811011e-05)
(0.0045019688 5.6259687e-05 -0.00030411857)
(0.00049919356 0.00018213699 -0.00037448491)
(0.0005712672 -0.0001180616 2.9404642e-05)
(0.0038064458 6.1230966e-05 0.00026010582)
(-0.000126216 -0.0003762135 -3.4767781e-06)
(-0.00022348495 4.5462984e-05 -8.8061508e-05)
(-9.5414828e-05 0.00021712248 -9.7580543e-05)
(-5.4060952e-05 -0.00010788144 -8.7484498e-06)
(-6.8986394e-05 0.00010692073 4.8288968e-05)
(-6.7754622e-05 -0.00011962352 -1.7507246e-06)
(-0.00010292216 -2.0212262e-05 -2.7266005e-05)
(-7.4593924e-05 4.644113e-05 -3.1421462e-05)
(-4.3563743e-05 2.7695335e-05 -1.321583e-05)
(-1.2212629e-05 7.4784389e-05 6.6231905e-06)
(-4.5781307e-05 -4.6617284e-05 8.0665734e-07)
(-5.8774804e-05 -1.2924124e-05 -8.1881322e-06)
(-4.7663408e-05 1.9126346e-05 -1.1026306e-05)
(-2.5924261e-05 3.1785636e-05 -7.3910257e-06)
(1.21959e-06 4.8052279e-05 -1.1832107e-06)
(-3.2987589e-05 -2.0100827e-05 1.3990938e-06)
(-3.7178882e-05 -3.5494983e-06 -2.0081337e-06)
(-2.988422e-05 1.4197836e-05 -3.7602882e-06)
(-1.4637889e-05 2.5294927e-05 -3.2280331e-06)
(4.1670453e-06 3.1831624e-05 -1.5044057e-06)
(5.4828514e-05 -0.00016407983 -0.00036570161)
(0.0021184644 2.1424595e-05 -5.5144351e-05)
(5.9801082e-05 0.00011513096 0.00015404136)
(0.0010375883 -1.5753222e-05 -0.00027858878)
(0.0007451201 1.5798109e-06 -6.888232e-06)
(-0.00013698168 -0.00022313019 -7.6431996e-05)
(-0.00020768777 2.1644938e-05 -6.037026e-05)
(-0.00010017075 0.00015401772 -4.4651587e-05)
(-2.0794549e-05 9.4717039e-06 -9.6742597e-05)
(-5.6441394e-06 3.330505e-05 -1.6587312e-05)
(-8.4577015e-05 -8.5023495e-05 -1.896549e-05)
(-0.00011056091 -1.0718851e-06 -3.6862733e-05)
(-7.5224821e-05 5.7952933e-05 -4.2025756e-05)
(-2.8285319e-05 4.9846129e-05 -5.0131454e-05)
(9.8126876e-06 5.8645658e-05 -2.0210579e-05)
(-5.5519813e-05 -3.8146632e-05 -6.4027922e-06)
(-6.5521346e-05 -8.5679143e-07 -1.8625772e-05)
(-4.9311992e-05 3.1375124e-05 -2.521694e-05)
(-2.0431773e-05 4.3191357e-05 -2.6687397e-05)
(9.9698435e-06 4.6850315e-05 -1.4947791e-05)
(-3.7764294e-05 -1.7936294e-05 -3.1206422e-06)
(-4.1039405e-05 2.1018029e-06 -9.6049493e-06)
(-3.1176701e-05 2.1212715e-05 -1.358439e-05)
(-1.2810241e-05 3.1824967e-05 -1.3929026e-05)
(7.661071e-06 3.3942654e-05 -9.3360406e-06)
)
;

boundaryField
{
    movingWall
    {
        type            fixedValue;
        value           nonuniform 0();
    }
    CPLReceiveMD
    {
        type            fixedValue;
        value           nonuniform List<vector> 
25
(
(0.48046729 0 0)
(0.59304318 0 0)
(0.3257126 0 0)
(5.0025394 0 0)
(0.47173704 0 0)
(0.51558907 0 0)
(0.4799542 0 0)
(0.034516843 0 0)
(9.9575072 0 0)
(3.9412282 0 0)
(0.75936052 0 0)
(0.1745357 0 0)
(6.9892086 0 0)
(0.43195908 0 0)
(0.018309305 0 0)
(0.16222925 0 0)
(0.091164249 0 0)
(7.9175566 0 0)
(0.36491821 0 0)
(1.1416814 0 0)
(0.25957887 0 0)
(0.48783256 0 0)
(0.5040664 0 0)
(5.990225 0 0)
(1.3171188 0 0)
)
;
    }
    streamwiseIn
    {
        type            cyclic;
    }
    streamwiseOut
    {
        type            cyclic;
    }
    front
    {
        type            cyclic;
    }
    back
    {
        type            cyclic;
    }
    procBoundary11to2
    {
        type            processor;
        value           nonuniform List<vector> 
25
(
(0.0011188042 -8.2048395e-05 0.0005968982)
(0.00033558846 -0.00055953433 0.0003280632)
(0.0073824819 2.0428495e-05 0.00015068609)
(0.00021590037 0.00062344546 0.00027887925)
(0.0016750669 0.00016874762 0.00023625981)
(-7.4889356e-07 -8.3100309e-05 0.00031727407)
(-0.00013727014 -0.00064090804 0.00026005063)
(-0.00039624644 6.1003359e-05 0.00017997911)
(-6.976301e-05 0.0008003867 0.00016445401)
(0.00026687514 0.00025962696 0.00011860019)
(-8.2831517e-05 1.2172528e-05 0.00015469692)
(-9.5896517e-05 -8.2290216e-05 0.00015510116)
(-0.00014236994 8.1358094e-05 0.00012329559)
(-1.9567125e-05 0.00026070269 9.9564745e-05)
(0.00011736164 0.00014832179 6.5947544e-05)
(-8.1904907e-05 2.4921898e-05 7.2797185e-05)
(-6.8325587e-05 1.6247071e-05 8.3895731e-05)
(-5.7694771e-05 7.356918e-05 7.4022619e-05)
(-2.9195347e-06 0.00012929092 5.9244001e-05)
(5.8615244e-05 9.4163919e-05 3.8278047e-05)
(-6.1017597e-05 1.9814787e-05 3.4624901e-05)
(-4.7249352e-05 3.3123295e-05 4.3989278e-05)
(-2.9327806e-05 5.6349078e-05 4.1829755e-05)
(1.0275613e-06 7.3293459e-05 3.4127787e-05)
(3.2567413e-05 6.0340372e-05 2.2378299e-05)
)
;
    }
    procBoundary11to9throughstreamwiseOut
    {
        type            processorCyclic;
        value           nonuniform List<vector> 
25
(
(0.00067491675 1.3714213e-05 -2.7343182e-05)
(0.00017032297 3.9616889e-05 8.4669196e-06)
(0.00010134429 4.8274517e-05 1.4750267e-05)
(6.0804701e-05 3.9426651e-05 1.2425615e-05)
(3.7752519e-05 2.9766842e-05 8.8937235e-06)
(0.0019466269 4.960785e-05 -0.00027144105)
(0.00014528599 8.3670416e-05 -5.3860358e-05)
(8.1092875e-05 5.6756063e-05 -6.5946e-06)
(4.6622599e-05 3.8640326e-05 4.8635454e-06)
(2.8907067e-05 2.7341391e-05 5.7140972e-06)
(0.00099108982 0.000231488 -0.00021815043)
(0.00012296238 0.0003046559 -4.1440968e-05)
(6.1754354e-05 0.00010699849 -7.1885518e-06)
(3.6317928e-05 5.1735349e-05 1.0660153e-06)
(2.3442847e-05 2.9068383e-05 2.3368565e-06)
(0.00086084845 0.00022646523 0.00019141418)
(9.3076563e-05 0.0002947804 4.2568985e-05)
(5.3219867e-05 9.9262994e-05 1.0342953e-05)
(3.3362229e-05 4.8165732e-05 1.2908574e-06)
(2.2093466e-05 2.8174318e-05 -3.5257789e-07)
(0.0014787396 8.2503594e-05 0.00024039424)
(7.1240133e-05 0.00012344618 4.4175005e-05)
(5.3557321e-05 6.5720362e-05 4.1794287e-06)
(3.6828718e-05 4.1039823e-05 -3.7636737e-06)
(2.4595824e-05 2.7389115e-05 -3.8696075e-06)
)
;
    }
    procBoundary11to10
    {
        type            processor;
        value           nonuniform List<vector> 
25
(
(0.00028309202 -4.5893153e-05 8.3063848e-05)
(-5.4629985e-05 -6.7314674e-05 5.2758997e-05)
(-7.1264056e-05 -3.4575916e-05 3.0946514e-05)
(-6.1237588e-05 -2.1765691e-05 1.5404858e-05)
(-4.6567416e-05 -1.4220023e-05 7.701454e-06)
(0.00045361194 -2.5608285e-06 8.1273202e-05)
(3.2678978e-06 -2.3852157e-05 4.69085e-05)
(-2.9872207e-05 -3.867212e-05 2.3451519e-05)
(-3.5718315e-05 -2.8811976e-05 1.145885e-05)
(-3.1496766e-05 -1.8532383e-05 5.8200631e-06)
(0.00068919685 -8.0289735e-05 0.00026732553)
(4.0850872e-05 -0.00012516779 7.2123377e-05)
(-7.2648565e-06 -7.0025576e-05 2.33353e-05)
(-2.1959793e-05 -3.9397151e-05 9.3274245e-06)
(-2.3112984e-05 -2.2567845e-05 4.4558863e-06)
(0.00065760045 -0.00019790751 1.9735636e-05)
(7.8149982e-05 -0.00026798679 1.9171129e-05)
(1.8781826e-07 -0.00010146811 1.1776317e-05)
(-1.8809417e-05 -4.7691392e-05 6.5747558e-06)
(-2.094704e-05 -2.5485491e-05 3.5039209e-06)
(0.00061102758 -8.0884652e-05 -0.00016066562)
(2.0793661e-05 -0.0001331569 -6.3006201e-07)
(-1.9248563e-05 -8.2621954e-05 1.3223826e-05)
(-2.6731084e-05 -4.7669545e-05 8.2096782e-06)
(-2.4474942e-05 -2.7267564e-05 3.9395316e-06)
)
;
    }
    procBoundary11to14
    {
        type            processor;
        value           nonuniform List<vector> 
25
(
(-3.3295291e-05 2.777238e-06 1.3363328e-05)
(-2.8492746e-05 1.420146e-05 1.8360645e-05)
(-1.8520675e-05 2.6094086e-05 1.9518743e-05)
(-3.3460838e-06 3.3622701e-05 1.7311421e-05)
(1.2820068e-05 3.1323481e-05 1.2114333e-05)
(-2.7293452e-05 -3.8698693e-06 9.0553875e-06)
(-2.5635895e-05 5.7692192e-06 1.2299844e-05)
(-1.8573847e-05 1.6565327e-05 1.3351701e-05)
(-6.3326626e-06 2.4503148e-05 1.2261379e-05)
(7.7773541e-06 2.5379594e-05 8.7204078e-06)
(-2.4106476e-05 -7.6308157e-06 4.8481973e-06)
(-2.4196433e-05 1.5116201e-06 5.8224536e-06)
(-1.855914e-05 1.1842288e-05 6.0079499e-06)
(-7.9773781e-06 1.9647223e-05 5.5773162e-06)
(4.7237748e-06 2.2426727e-05 4.0501377e-06)
(-2.3845315e-05 -8.8464595e-06 1.1143734e-06)
(-2.4476142e-05 1.3002763e-06 -1.6893602e-07)
(-1.8818985e-05 1.1926156e-05 -1.0615328e-06)
(-8.2904751e-06 1.9179443e-05 -1.1986264e-06)
(4.0989797e-06 2.1770378e-05 -7.8599147e-07)
(-2.6150449e-05 -8.2976156e-06 -1.8303958e-06)
(-2.6372339e-05 3.748422e-06 -5.166678e-06)
(-1.9588831e-05 1.5397326e-05 -7.2789819e-06)
(-7.7018368e-06 2.2506331e-05 -7.4088753e-06)
(5.53399e-06 2.3654587e-05 -5.4562178e-06)
)
;
    }
    procBoundary11to20
    {
        type            processor;
        value           nonuniform List<vector> 
25
(
(0.00016361416 1.2529305e-07 -1.4667103e-05)
(0.00012551863 5.1078436e-05 -0.00063744532)
(0.00011534965 -1.6602051e-05 -0.00020130451)
(0.001693847 6.4053399e-05 -0.00048697406)
(0.00051564592 5.1629764e-05 -0.00013278286)
(-0.00018662321 -2.9339276e-05 -4.2472209e-06)
(-0.00019294688 6.3788311e-05 -0.00011978525)
(-0.00013181987 2.1009071e-05 -0.00012686712)
(-2.536437e-05 0.00012084481 -0.00020315894)
(7.0677355e-05 9.3696612e-05 -8.0105972e-05)
(-0.00011784134 -4.959427e-05 -5.4267418e-06)
(-0.00012598272 2.1532256e-05 -5.027446e-05)
(-8.7862632e-05 6.5875805e-05 -7.2186452e-05)
(-2.1748321e-05 9.7750608e-05 -9.5032849e-05)
(4.2097866e-05 7.642396e-05 -4.8842276e-05)
(-7.261675e-05 -3.0772428e-05 -6.680384e-06)
(-7.7588945e-05 1.4333663e-05 -2.5108794e-05)
(-5.5725029e-05 4.7567714e-05 -3.9520956e-05)
(-1.565511e-05 6.7988062e-05 -4.5688931e-05)
(2.4143315e-05 5.8926817e-05 -2.8150915e-05)
(-4.6532067e-05 -1.5528429e-05 -6.0693263e-06)
(-4.7642627e-05 9.9095961e-06 -1.5133296e-05)
(-3.4208295e-05 3.2135794e-05 -2.1887168e-05)
(-1.0389539e-05 4.4573448e-05 -2.3228545e-05)
(1.4226464e-05 4.1323198e-05 -1.5983312e-05)
)
;
    }
}


// ************************************************************************* //
