/*--------------------------------*- C++ -*----------------------------------*\
| =========                 |                                                 |
| \\      /  F ield         | OpenFOAM: The Open Source CFD Toolbox           |
|  \\    /   O peration     | Version:  3.0.1                                 |
|   \\  /    A nd           | Web:      www.OpenFOAM.org                      |
|    \\/     M anipulation  |                                                 |
\*---------------------------------------------------------------------------*/
FoamFile
{
    version     2.0;
    format      ascii;
    class       surfaceScalarField;
    location    "0.2";
    object      phi;
}
// * * * * * * * * * * * * * * * * * * * * * * * * * * * * * * * * * * * * * //

dimensions      [0 3 -1 0 0 0 0];

internalField   nonuniform List<scalar> 
300
(
0.00022982646
-0.0012130996
0.00028227591
-0.00044520938
-0.0013009093
0.00029548105
-0.0010537447
-0.0011768512
0.00023416015
-0.001520282
-0.00085533608
9.7813309e-05
-0.00037808981
-8.1016839e-05
0.00014261368
-0.00082188274
0.00017311163
-0.00032026044
-0.00085646015
0.00018186941
-0.00073128595
-0.00075288976
0.00014022839
-0.0010428029
-0.00052780616
4.9868051e-05
-0.00021382934
-7.0070617e-05
0.00010848261
-0.00050668852
0.00011856283
-0.000216378
-0.00051140636
0.00012081341
-0.00050578261
-0.00043777188
8.7854566e-05
-0.0007284989
-0.00029803776
2.3635573e-05
-0.00011277403
-5.8967425e-05
0.00010415195
-0.00024037818
9.4253303e-05
-0.00014256991
-0.00023385748
9.4069938e-05
-0.00036593989
-0.00019530865
6.5441233e-05
-0.00054271463
-0.00013096916
1.7065475e-05
-4.9015951e-05
-4.0013477e-05
0.00011066169
8.838889e-05
-0.00010402173
8.5746754e-05
-0.00030153597
5.8451234e-05
-0.00046017134
1.5136809e-05
-2.8835448e-05
0.00024297325
-0.0013219819
0.00038016306
-0.00050637997
-0.0014148361
0.00036648265
-0.0011900979
-0.001271339
0.00026488003
-0.0016991976
-0.00090388129
9.3753388e-05
-0.0003676872
-0.00011674442
0.00015084348
-0.00087738887
0.00022777185
-0.00036192004
-0.00091771026
0.00021575576
-0.00082161942
-0.00080559038
0.00015078802
-0.0011627608
-0.00055437321
4.3643692e-05
-0.00020292109
-8.6356554e-05
0.00011101794
-0.0005325726
0.00014973292
-0.0002492801
-0.00054100222
0.0001357944
-0.00056992582
-0.00046032755
9.0482005e-05
-0.00081112397
-0.00030472953
1.8573035e-05
-9.3516936e-05
-6.395203e-05
0.00010285392
-0.00024747341
0.0001129288
-0.00016833271
-0.00024305038
9.9650105e-05
-0.00041414726
-0.00020346232
6.337931e-05
-0.00059983449
-0.00013290898
9.1650612e-06
-3.7146824e-05
-4.6585296e-05
0.00010722126
0.00010019942
-0.00012874698
8.4920561e-05
-0.00034350547
5.0633519e-05
-0.00050383837
4.5718345e-06
-3.9378428e-05
0.00022917196
-0.0014745952
0.00042339222
-0.00060801244
-0.0015657825
0.00038138899
-0.0013613397
-0.0013856928
0.00026360525
-0.0019096646
-0.00095435017
7.9274784e-05
-0.00033783876
-0.00013381824
0.00013881971
-0.00095538936
0.00025019231
-0.00042691383
-0.00099798211
0.00021922045
-0.00092880502
-0.00086603418
0.00014427206
-0.0012927094
-0.00057962962
3.5242819e-05
-0.00018070132
-8.3586602e-05
9.6801732e-05
-0.00056939037
0.00015994133
-0.00029436744
-0.0005770754
0.00013378751
-0.00064182732
-0.00048746884
8.2044941e-05
-0.00089362105
-0.00031414924
1.3577225e-05
-7.6262356e-05
-5.4818104e-05
8.9371191e-05
-0.00026028902
0.00011561821
-0.00020446927
-0.00025765305
9.2682671e-05
-0.00046831812
-0.00021601769
5.1567796e-05
-0.00065576274
-0.00013745858
1.6046622e-06
-2.9974385e-05
-4.6876462e-05
9.1851072e-05
9.858437e-05
-0.00016284828
7.473888e-05
-0.0003896666
3.7712197e-05
-0.00054804493
-5.2552613e-06
-4.7863085e-05
0.00018696496
-0.0016478274
0.00037998387
-0.00072564778
-0.001728591
0.0003293117
-0.0015457631
-0.0015052237
0.00021691673
-0.0021227078
-0.00099857652
4.775563e-05
-0.00028796322
-0.00012232954
0.00010712205
-0.0010455905
0.00021812265
-0.00050121591
-0.0010829621
0.00017722639
-0.0010378473
-0.0009283546
0.00010491935
-0.0014115072
-0.00060140392
1.442176e-05
-0.00015202001
-6.5625974e-05
7.0410078e-05
-0.00061372888
0.00013362735
-0.00034597032
-0.00061799485
0.00010044959
-0.00071028894
-0.00051790848
5.2598346e-05
-0.00096201939
-0.00032610374
3.1784862e-06
-6.8323135e-05
-4.0441846e-05
6.6464199e-05
-0.00027740922
9.4209888e-05
-0.00024560892
-0.00027544378
6.8528851e-05
-0.00051832145
-0.00022977414
3.2849193e-05
-0.00070426118
-0.00014431016
-3.8961071e-06
-3.1094416e-05
-4.2625226e-05
6.8204231e-05
8.2249929e-05
-0.00019993231
5.9648946e-05
-0.00043275432
2.6866182e-05
-0.00059080273
-9.1315987e-06
-4.6981905e-05
0.00013649271
-0.0018095076
-0.00083797762
-0.0018804703
-0.001714849
-0.0016162505
-0.0022928454
-0.0010317582
-0.00023120779
6.6461218e-05
-0.0011297628
-0.0005725947
-0.0011587225
-0.0011290883
-0.00098048083
-0.0014916961
-0.00061257896
-0.00012688693
3.8216536e-05
-0.00065030187
-0.00039368064
-0.00064903392
-0.00076065501
-0.00053825875
-0.0010059325
-0.00033359621
-7.1422383e-05
3.9854491e-05
-0.00028749424
-0.00028265015
-0.000284343
-0.00055588215
-0.00023636825
-0.00074376705
-0.00014978626
-3.5159046e-05
4.2789224e-05
-0.00023464315
-0.00046920509
-0.00062894131
)
;

boundaryField
{
    movingWall
    {
        type            calculated;
        value           uniform 0;
    }
    CPLReceiveMD
    {
        type            calculated;
        value           nonuniform 0();
    }
    streamwiseIn
    {
        type            cyclic;
        value           nonuniform 0();
    }
    streamwiseOut
    {
        type            cyclic;
        value           nonuniform 0();
    }
    front
    {
        type            cyclic;
        value           nonuniform 0();
    }
    back
    {
        type            cyclic;
        value           nonuniform 0();
    }
    procBoundary25to7throughback
    {
        type            processorCyclic;
        value           nonuniform List<scalar> 
25
(
0.00029140957
0.00017032466
9.6801285e-05
4.3551239e-05
1.0573961e-05
0.00024581351
0.00012836328
6.971744e-05
3.3394976e-05
1.0373765e-05
0.00017636491
8.1733189e-05
3.733259e-05
1.292569e-05
-3.4103987e-07
7.0053008e-05
2.8398441e-05
4.8836386e-06
-1.1227102e-05
-1.9647195e-05
-5.7818894e-05
-2.018302e-05
-1.5862305e-05
-3.0874256e-05
-4.4937614e-05
)
;
    }
    procBoundary25to16
    {
        type            processor;
        value           nonuniform List<scalar> 
25
(
-0.00023864799
-0.00020915645
-0.00015160863
-6.519448e-05
5.1119731e-05
-0.000139727
-0.00012162843
-8.7335445e-05
-3.2209298e-05
4.0365606e-05
-8.1919355e-05
-7.5689869e-05
-5.3741666e-05
-1.5963155e-05
3.3201946e-05
-5.4421876e-05
-5.5264507e-05
-4.0493625e-05
-1.4449803e-05
1.9390541e-05
-4.3259879e-05
-4.6115753e-05
-3.5345442e-05
-1.5886951e-05
8.3896284e-06
)
;
    }
    procBoundary25to22
    {
        type            processor;
        value           nonuniform List<scalar> 
25
(
0.0016607572
0.0018594156
0.0017502172
0.001330125
0.00067146087
0.0019333479
0.0020945209
0.0019240584
0.0014153541
0.00065374042
0.0022485608
0.0023803357
0.0021367561
0.0015097355
0.00060680988
0.0025714111
0.0026872667
0.0023649503
0.0015979151
0.00052257527
0.0028659484
0.0029785813
0.0025883028
0.0016858604
0.00041884933
)
;
    }
    procBoundary25to24
    {
        type            processor;
        value           nonuniform List<scalar> 
25
(
-0.00093867685
-0.00063172881
-0.00044341463
-0.00034513954
-0.00030606471
-0.00093765536
-0.000646671
-0.00046129109
-0.00035923994
-0.00031464687
-0.00095182213
-0.00065968602
-0.00047258818
-0.0003692177
-0.00032357083
-0.00097395442
-0.00066413462
-0.00047407281
-0.00037392538
-0.00033141536
-0.00098551147
-0.00064738479
-0.00045734093
-0.00037315469
-0.0003465711
)
;
    }
    procBoundary25to26
    {
        type            processor;
        value           nonuniform List<scalar> 
25
(
-0.0017370028
-0.0012085978
-0.00086420585
-0.00066464245
-0.00057395715
-0.0018893057
-0.0013078332
-0.00093154476
-0.00071171081
-0.00060863257
-0.0020660753
-0.001411118
-0.00099600412
-0.0007549721
-0.00064213496
-0.0022490205
-0.0015063919
-0.001051615
-0.00079334912
-0.00067416717
-0.0024134696
-0.0015739929
-0.0010833017
-0.000819138
-0.00070472661
)
;
    }
}


// ************************************************************************* //
