/*--------------------------------*- C++ -*----------------------------------*\
| =========                 |                                                 |
| \\      /  F ield         | OpenFOAM: The Open Source CFD Toolbox           |
|  \\    /   O peration     | Version:  3.0.1                                 |
|   \\  /    A nd           | Web:      www.OpenFOAM.org                      |
|    \\/     M anipulation  |                                                 |
\*---------------------------------------------------------------------------*/
FoamFile
{
    version     2.0;
    format      ascii;
    class       volVectorField;
    location    "0.2";
    object      U;
}
// * * * * * * * * * * * * * * * * * * * * * * * * * * * * * * * * * * * * * //

dimensions      [0 1 -1 0 0 0 0];

internalField   nonuniform List<vector> 
125
(
(1.4633395e-06 -3.5918535e-06 6.51441e-07)
(-2.6651423e-07 -3.9490833e-06 6.3110353e-07)
(-1.8713324e-06 -3.6565373e-06 4.829389e-07)
(-3.2163583e-06 -2.7283139e-06 2.0443212e-07)
(-4.072249e-06 -1.3074813e-06 -1.6454634e-07)
(9.6971754e-07 -2.543062e-06 3.8645672e-07)
(-2.2016062e-07 -2.6957155e-06 3.7942675e-07)
(-1.3131972e-06 -2.4103177e-06 2.846894e-07)
(-2.2171372e-06 -1.7262425e-06 1.0289462e-07)
(-2.8146537e-06 -7.3682463e-07 -1.3779001e-07)
(6.9105067e-07 -1.660267e-06 2.4855557e-07)
(-1.3376989e-07 -1.7092925e-06 2.4558553e-07)
(-9.0185935e-07 -1.4873859e-06 1.7706589e-07)
(-1.5428653e-06 -1.0310577e-06 4.9627827e-08)
(-1.9914441e-06 -4.070391e-07 -1.1497932e-07)
(5.6292106e-07 -9.3387972e-07 1.8759325e-07)
(-4.7279633e-08 -9.3129512e-07 1.8319175e-07)
(-6.3496254e-07 -7.9086291e-07 1.3236451e-07)
(-1.1367904e-06 -5.3582683e-07 3.9512227e-08)
(-1.5106398e-06 -2.0202421e-07 -7.3379753e-08)
(5.2265007e-07 -3.0047305e-07 1.6974917e-07)
(8.9178881e-09 -2.9217648e-07 1.6163124e-07)
(-5.0645699e-07 -2.4398224e-07 1.160084e-07)
(-9.5381097e-07 -1.6364727e-07 3.9097353e-08)
(-1.2948637e-06 -6.1261075e-08 -4.461762e-08)
(1.4785421e-06 -4.0683018e-06 8.2823466e-07)
(-3.262028e-07 -4.3848295e-06 8.2783852e-07)
(-2.1180241e-06 -3.9909687e-06 6.2460906e-07)
(-3.6104969e-06 -2.894138e-06 2.402596e-07)
(-4.4863302e-06 -1.2710566e-06 -2.465235e-07)
(9.9884165e-07 -2.7485613e-06 5.0186568e-07)
(-2.6190203e-07 -2.9143554e-06 4.9711459e-07)
(-1.4779566e-06 -2.5938693e-06 3.6400636e-07)
(-2.4799235e-06 -1.8195041e-06 1.1723922e-07)
(-3.0887938e-06 -7.0946757e-07 -1.9511927e-07)
(7.1685809e-07 -1.7622418e-06 3.3470923e-07)
(-1.7151074e-07 -1.8226889e-06 3.2042043e-07)
(-1.0231727e-06 -1.5811749e-06 2.2297615e-07)
(-1.7260952e-06 -1.0722967e-06 5.2930605e-08)
(-2.1787882e-06 -3.6888584e-07 -1.5317853e-07)
(5.7894972e-07 -9.7503437e-07 2.5635587e-07)
(-8.0835307e-08 -9.7980206e-07 2.3839655e-07)
(-7.2756447e-07 -8.2925596e-07 1.6094704e-07)
(-1.2676345e-06 -5.4651586e-07 3.2931261e-08)
(-1.6400442e-06 -1.6292659e-07 -1.0732678e-07)
(5.2877579e-07 -3.0927885e-07 2.3161617e-07)
(-2.6068166e-08 -3.0369219e-07 2.0860023e-07)
(-5.8994358e-07 -2.5421168e-07 1.3496606e-07)
(-1.0595326e-06 -1.6605946e-07 2.4799184e-08)
(-1.3913988e-06 -4.6392757e-08 -8.350273e-08)
(1.4791728e-06 -4.6529769e-06 1.004169e-06)
(-4.7013982e-07 -4.930538e-06 9.3470693e-07)
(-2.4589113e-06 -4.3991276e-06 6.607223e-07)
(-4.0874909e-06 -3.0742377e-06 2.1651512e-07)
(-4.9703326e-06 -1.1739643e-06 -3.1296588e-07)
(1.0002755e-06 -3.0365875e-06 5.9723612e-07)
(-3.5801993e-07 -3.2031336e-06 5.4288338e-07)
(-1.6930726e-06 -2.8119506e-06 3.6886978e-07)
(-2.7762628e-06 -1.9135715e-06 9.8722374e-08)
(-3.3803894e-06 -6.4347966e-07 -2.1223143e-07)
(7.1339872e-07 -1.9057769e-06 3.8698682e-07)
(-2.4550297e-07 -1.9680105e-06 3.3644099e-07)
(-1.1693492e-06 -1.6904452e-06 2.1567792e-07)
(-1.9190199e-06 -1.1153657e-06 4.0261506e-08)
(-2.3625062e-06 -3.192466e-07 -1.4832757e-07)
(5.7466571e-07 -1.0369224e-06 2.856228e-07)
(-1.4268847e-07 -1.0430546e-06 2.4032742e-07)
(-8.4042782e-07 -8.7881812e-07 1.4376045e-07)
(-1.4050642e-06 -5.639227e-07 1.3560978e-08)
(-1.7638531e-06 -1.3233623e-07 -1.168075e-07)
(5.2064469e-07 -3.2516199e-07 2.4843364e-07)
(-8.7732224e-08 -3.2191129e-07 1.9978121e-07)
(-6.9025804e-07 -2.6990901e-07 1.1078978e-07)
(-1.1722798e-06 -1.7174892e-07 -7.2559275e-10)
(-1.4882589e-06 -3.7437134e-08 -1.0924426e-07)
(1.4541913e-06 -5.2729871e-06 1.0034582e-06)
(-6.6964952e-07 -5.5176948e-06 8.877652e-07)
(-2.8362159e-06 -4.8336195e-06 6.0059453e-07)
(-4.5841851e-06 -3.2394674e-06 1.5883926e-07)
(-5.465368e-06 -1.0058215e-06 -3.2025996e-07)
(9.6627599e-07 -3.3657435e-06 5.8475381e-07)
(-4.9026836e-07 -3.5126214e-06 4.9464764e-07)
(-1.9221176e-06 -3.0389136e-06 3.1277605e-07)
(-3.0610247e-06 -1.9957577e-06 6.2426328e-08)
(-3.6479392e-06 -5.4482927e-07 -1.8646131e-07)
(6.8231023e-07 -2.0738551e-06 3.6689914e-07)
(-3.4281964e-07 -2.1252449e-06 2.9393848e-07)
(-1.3193522e-06 -1.8062843e-06 1.699094e-07)
(-2.0901007e-06 -1.1574581e-06 2.134114e-08)
(-2.5174653e-06 -2.7346191e-07 -1.1918902e-07)
(5.5193946e-07 -1.1135287e-06 2.6598588e-07)
(-2.2269765e-07 -1.116403e-06 2.0405443e-07)
(-9.5433091e-07 -9.3409868e-07 1.0631231e-07)
(-1.5282024e-06 -5.8748092e-07 -3.1292579e-09)
(-1.8724295e-06 -1.2384956e-07 -1.1327699e-07)
(5.0083828e-07 -3.4640627e-07 2.3222617e-07)
(-1.6371202e-07 -3.4417693e-07 1.7055972e-07)
(-7.9045038e-07 -2.8713615e-07 8.0787154e-08)
(-1.2795667e-06 -1.8032695e-07 -1.8568017e-08)
(-1.581738e-06 -3.8841861e-08 -1.1974064e-07)
(1.4056132e-06 -5.8433869e-06 8.3930908e-07)
(-8.7300345e-07 -6.0716632e-06 7.1861559e-07)
(-3.1878372e-06 -5.251679e-06 4.9159319e-07)
(-5.0083454e-06 -3.3911416e-06 1.4744488e-07)
(-5.8836691e-06 -8.0520205e-07 -2.2492785e-07)
(8.944786e-07 -3.6731465e-06 4.8638099e-07)
(-6.2999769e-07 -3.7969603e-06 3.8197815e-07)
(-2.1252939e-06 -3.2426358e-06 2.3459422e-07)
(-3.2755002e-06 -2.0510696e-06 5.3870978e-08)
(-3.8326256e-06 -4.4240873e-07 -1.0568075e-07)
(6.2111597e-07 -2.2245448e-06 2.8822344e-07)
(-4.4249271e-07 -2.2586037e-06 2.1409352e-07)
(-1.4419465e-06 -1.896909e-06 1.140116e-07)
(-2.2081184e-06 -1.1809213e-06 1.050156e-08)
(-2.6118915e-06 -2.4606228e-07 -6.9119921e-08)
(5.1766074e-07 -1.1715365e-06 1.7426089e-07)
(-3.0236203e-07 -1.1663852e-06 1.2987432e-07)
(-1.0476115e-06 -9.6791137e-07 5.7997604e-08)
(-1.6246535e-06 -6.0382641e-07 -1.9132488e-08)
(-1.9540853e-06 -1.3290986e-07 -9.3052155e-08)
(4.8804483e-07 -3.5885989e-07 1.183721e-07)
(-2.3917124e-07 -3.5535504e-07 8.9715201e-08)
(-8.7938577e-07 -2.9540401e-07 3.3096882e-08)
(-1.3728076e-06 -1.8718267e-07 -3.6560804e-08)
(-1.6677527e-06 -4.3923481e-08 -1.1606061e-07)
)
;

boundaryField
{
    movingWall
    {
        type            fixedValue;
        value           uniform (0 0 0);
    }
    CPLReceiveMD
    {
        type            fixedValue;
        value           nonuniform 0();
    }
    streamwiseIn
    {
        type            cyclic;
    }
    streamwiseOut
    {
        type            cyclic;
    }
    front
    {
        type            cyclic;
    }
    back
    {
        type            cyclic;
    }
    procBoundary25to7throughback
    {
        type            processorCyclic;
        value           nonuniform List<vector> 
25
(
(1.457031e-06 -6.1788255e-06 4.5007738e-07)
(9.1438638e-07 -3.9168292e-06 2.4338198e-07)
(6.2039858e-07 -2.3859752e-06 1.2367444e-07)
(4.8446767e-07 -1.2833492e-06 4.7101744e-08)
(4.2314707e-07 -4.0225508e-07 -3.9392792e-09)
(-1.0173654e-06 -6.4124999e-06 3.6102012e-07)
(-7.4205512e-07 -4.0171434e-06 1.8965884e-07)
(-5.1703147e-07 -2.3773487e-06 9.5563347e-08)
(-3.3896093e-07 -1.2407563e-06 2.9086349e-08)
(-2.4898724e-07 -3.8430636e-07 -1.3886919e-08)
(-3.4073866e-06 -5.4678209e-06 2.2798057e-07)
(-2.2502248e-06 -3.4164952e-06 1.1780404e-07)
(-1.5229442e-06 -1.9828809e-06 5.6638476e-08)
(-1.1033377e-06 -1.0150027e-06 5.4361475e-09)
(-9.1672639e-07 -3.1202523e-07 -2.5032217e-08)
(-5.3007061e-06 -3.411628e-06 6.2439188e-08)
(-3.4012997e-06 -2.132701e-06 3.2375292e-08)
(-2.2732323e-06 -1.2304616e-06 6.5926209e-09)
(-1.6792522e-06 -6.3455109e-07 -2.4851478e-08)
(-1.4287241e-06 -1.9776265e-07 -4.1546798e-08)
(-6.2277064e-06 -6.1831245e-07 -1.2772354e-07)
(-4.0226647e-06 -3.8902134e-07 -5.4830624e-08)
(-2.7077314e-06 -2.6083332e-07 -4.0927128e-08)
(-1.9913874e-06 -1.7082016e-07 -5.3505582e-08)
(-1.6730736e-06 -6.1875826e-08 -6.3089422e-08)
)
;
    }
    procBoundary25to16
    {
        type            processor;
        value           nonuniform List<vector> 
25
(
(1.3362823e-06 -3.4180259e-06 3.2219942e-07)
(-1.577007e-07 -3.7264133e-06 2.9106514e-07)
(-1.6913527e-06 -3.4509535e-06 2.198058e-07)
(-2.9630117e-06 -2.6005064e-06 1.1256487e-07)
(-3.8436211e-06 -1.2688225e-06 -3.8189128e-08)
(9.0544052e-07 -2.3456759e-06 1.816064e-07)
(-1.6013471e-07 -2.5288374e-06 1.6408958e-07)
(-1.2014245e-06 -2.2879962e-06 1.2330316e-07)
(-2.0574441e-06 -1.6646998e-06 5.877074e-08)
(-2.6701855e-06 -7.5903459e-07 -3.2974544e-08)
(6.6019628e-07 -1.5633783e-06 1.0729223e-07)
(-1.0002105e-07 -1.6264539e-06 1.0532441e-07)
(-8.2721502e-07 -1.4288501e-06 8.6364491e-08)
(-1.43405e-06 -1.0089143e-06 4.5711132e-08)
(-1.9061064e-06 -4.3329612e-07 -1.5296713e-08)
(5.4157003e-07 -8.9627071e-07 7.3387224e-08)
(-2.5606564e-08 -8.9590048e-07 8.4983333e-08)
(-5.8388495e-07 -7.6824994e-07 8.0429125e-08)
(-1.0618902e-06 -5.3602432e-07 5.4729455e-08)
(-1.4576855e-06 -2.3330929e-07 1.4182766e-08)
(5.0058269e-07 -2.9147697e-07 6.1639797e-08)
(2.7672604e-08 -2.8218472e-07 7.9312689e-08)
(-4.6740969e-07 -2.3790607e-07 8.0438997e-08)
(-8.9890659e-07 -1.6567845e-07 6.2355327e-08)
(-1.2585951e-06 -7.5163606e-08 3.2593337e-08)
)
;
    }
    procBoundary25to22
    {
        type            processor;
        value           nonuniform List<vector> 
25
(
(2.1269006e-06 -5.093817e-06 1.0367326e-06)
(-1.5547686e-07 -5.6914622e-06 1.037843e-06)
(-2.5339667e-06 -5.4076019e-06 8.247046e-07)
(-4.5661931e-06 -4.1882985e-06 3.9652622e-07)
(-5.9711092e-06 -2.1799631e-06 -1.3555597e-07)
(2.2377722e-06 -5.8994347e-06 1.5629891e-06)
(-3.3923515e-07 -6.4642413e-06 1.4785692e-06)
(-2.9686481e-06 -5.999386e-06 1.1065967e-06)
(-5.1998356e-06 -4.4779782e-06 4.6316304e-07)
(-6.6581335e-06 -2.1120982e-06 -3.2863624e-07)
(2.3097616e-06 -6.8926246e-06 1.8019214e-06)
(-6.1186924e-07 -7.4074613e-06 1.6757487e-06)
(-3.5493728e-06 -6.7227845e-06 1.2115206e-06)
(-6.0014261e-06 -4.7954967e-06 4.4405175e-07)
(-7.5105612e-06 -1.923734e-06 -4.7746651e-07)
(2.3335993e-06 -7.9742427e-06 1.7751638e-06)
(-9.2963589e-07 -8.4586683e-06 1.6357729e-06)
(-4.200345e-06 -7.5093988e-06 1.1653274e-06)
(-6.8888228e-06 -5.0916088e-06 3.7933024e-07)
(-8.4109904e-06 -1.6120171e-06 -5.552236e-07)
(2.3393211e-06 -9.0089409e-06 1.3922194e-06)
(-1.2217056e-06 -9.4839203e-06 1.2767832e-06)
(-4.8058154e-06 -8.265877e-06 8.6879556e-07)
(-7.7219771e-06 -5.3533449e-06 2.2603162e-07)
(-9.2067958e-06 -1.2551097e-06 -4.9318979e-07)
)
;
    }
    procBoundary25to24
    {
        type            processor;
        value           nonuniform List<vector> 
25
(
(2.8892649e-06 -2.7919002e-06 4.888438e-07)
(1.9788677e-06 -1.9234267e-06 2.8602562e-07)
(1.4044251e-06 -1.3024962e-06 1.8892372e-07)
(1.0867207e-06 -7.634335e-07 1.4581205e-07)
(9.5132659e-07 -2.5242703e-07 1.3343813e-07)
(3.0063301e-06 -3.145899e-06 8.1200526e-07)
(2.0720187e-06 -2.1526714e-06 4.6655667e-07)
(1.4796113e-06 -1.4027972e-06 2.9807238e-07)
(1.1465723e-06 -7.9227186e-07 2.266519e-07)
(1.0002454e-06 -2.540553e-07 2.1060561e-07)
(3.1575667e-06 -3.6210519e-06 9.5905773e-07)
(2.1709609e-06 -2.4373596e-06 5.7544904e-07)
(1.5492936e-06 -1.542401e-06 3.7098884e-07)
(1.200455e-06 -8.5086323e-07 2.6733768e-07)
(1.0462379e-06 -2.6843796e-07 2.2771873e-07)
(3.3083877e-06 -4.1503715e-06 9.613248e-07)
(2.2527097e-06 -2.7407403e-06 6.004445e-07)
(1.5977447e-06 -1.7109086e-06 3.8622123e-07)
(1.236682e-06 -9.3549785e-07 2.6105939e-07)
(1.0804793e-06 -2.9362579e-07 2.0315958e-07)
(3.3999831e-06 -4.6268207e-06 7.1577586e-07)
(2.2810383e-06 -3.0124631e-06 4.3386776e-07)
(1.6069331e-06 -1.8817861e-06 2.7600517e-07)
(1.2583476e-06 -1.0338816e-06 1.9734612e-07)
(1.1172435e-06 -3.2628398e-07 1.6740641e-07)
)
;
    }
    procBoundary25to26
    {
        type            processor;
        value           nonuniform List<vector> 
25
(
(-4.2800964e-06 4.2814157e-07 -4.3827695e-07)
(-2.9831388e-06 3.5456244e-07 -3.1571365e-07)
(-2.1700177e-06 2.7295612e-07 -2.2305394e-07)
(-1.6994524e-06 1.6028648e-07 -1.4284648e-07)
(-1.4840105e-06 5.1621504e-08 -9.3706316e-08)
(-4.6192044e-06 6.752017e-07 -6.5782402e-07)
(-3.1775473e-06 4.8803798e-07 -4.484964e-07)
(-2.2809763e-06 3.7645277e-07 -3.1813147e-07)
(-1.7716331e-06 2.4038155e-07 -2.2028207e-07)
(-1.5397449e-06 8.2046205e-08 -1.6859605e-07)
(-5.0006074e-06 1.0559342e-06 -7.6252269e-07)
(-3.3872261e-06 6.94255e-07 -4.6042302e-07)
(-2.3974516e-06 5.0117047e-07 -2.9841562e-07)
(-1.8430576e-06 3.09804e-07 -2.1882427e-07)
(-1.5917308e-06 1.0327274e-07 -1.9106482e-07)
(-5.373635e-06 1.5235839e-06 -7.544972e-07)
(-3.5884387e-06 9.5214505e-07 -3.8980992e-07)
(-2.5124427e-06 6.1805153e-07 -2.2804424e-07)
(-1.9109896e-06 3.4769802e-07 -1.9336139e-07)
(-1.6358117e-06 1.0976315e-07 -1.980618e-07)
(-5.6933203e-06 1.9830286e-06 -6.1489351e-07)
(-3.7536679e-06 1.220708e-06 -3.2085449e-07)
(-2.6072264e-06 6.97619e-07 -1.797645e-07)
(-1.9615778e-06 3.3974046e-07 -1.3809043e-07)
(-1.6653476e-06 9.8528168e-08 -1.2789643e-07)
)
;
    }
}


// ************************************************************************* //
