/*--------------------------------*- C++ -*----------------------------------*\
| =========                 |                                                 |
| \\      /  F ield         | OpenFOAM: The Open Source CFD Toolbox           |
|  \\    /   O peration     | Version:  3.0.1                                 |
|   \\  /    A nd           | Web:      www.OpenFOAM.org                      |
|    \\/     M anipulation  |                                                 |
\*---------------------------------------------------------------------------*/
FoamFile
{
    version     2.0;
    format      ascii;
    class       volScalarField;
    location    "0.1";
    object      p;
}
// * * * * * * * * * * * * * * * * * * * * * * * * * * * * * * * * * * * * * //

dimensions      [0 2 -2 0 0 0 0];

internalField   nonuniform List<scalar> 
125
(
-0.044342174
-0.045329403
-0.047092313
-0.049042778
-0.05108828
-0.047327571
-0.047703079
-0.048728655
-0.050085485
-0.051632892
-0.049224651
-0.049350145
-0.049957527
-0.050875248
-0.051979232
-0.050432669
-0.050460562
-0.050828471
-0.051441655
-0.052206324
-0.051204064
-0.051195676
-0.051425168
-0.051836897
-0.052362347
-0.044513599
-0.045330593
-0.047050513
-0.049085993
-0.051198013
-0.047482755
-0.047769677
-0.048750366
-0.050108883
-0.051655142
-0.049338999
-0.049415009
-0.049990276
-0.050891201
-0.051977782
-0.050507755
-0.050510431
-0.050857234
-0.051453294
-0.052200826
-0.051254093
-0.051233525
-0.051447526
-0.051844254
-0.052356859
-0.044842502
-0.045528268
-0.047167539
-0.049197643
-0.051316916
-0.047729773
-0.047942634
-0.048862439
-0.050181778
-0.051689933
-0.049504155
-0.049542882
-0.050077183
-0.050939898
-0.051987403
-0.050615705
-0.050599889
-0.05092048
-0.051487818
-0.052206194
-0.051329489
-0.051297252
-0.051494049
-0.051871111
-0.052363379
-0.045436473
-0.045982269
-0.047443486
-0.049341908
-0.051390511
-0.048088225
-0.048232747
-0.049056403
-0.050287025
-0.051720652
-0.049721394
-0.049728685
-0.050209405
-0.05101398
-0.052004591
-0.050752243
-0.050720876
-0.051010683
-0.051540983
-0.05222098
-0.051419734
-0.051378322
-0.051557416
-0.051911842
-0.052378475
-0.04623232
-0.046621388
-0.047828396
-0.049486701
-0.051376203
-0.048525962
-0.048602735
-0.049307057
-0.050411534
-0.051737
-0.049969844
-0.049950081
-0.050370355
-0.051103641
-0.05202506
-0.050900603
-0.050857765
-0.051114624
-0.051604213
-0.052242033
-0.051512532
-0.05146339
-0.051627869
-0.051960445
-0.05239837
)
;

boundaryField
{
    movingWall
    {
        type            zeroGradient;
    }
    CPLReceiveMD
    {
        type            zeroGradient;
    }
    streamwiseIn
    {
        type            cyclic;
    }
    streamwiseOut
    {
        type            cyclic;
    }
    front
    {
        type            cyclic;
    }
    back
    {
        type            cyclic;
    }
    procBoundary3to0
    {
        type            processor;
        value           nonuniform List<scalar> 
25
(
-0.039699035
-0.042078937
-0.045141557
-0.047807332
-0.050222798
-0.039745038
-0.041803116
-0.044886826
-0.047925268
-0.050605344
-0.040034524
-0.041918923
-0.044928318
-0.048087146
-0.050964562
-0.04103537
-0.042624649
-0.045275267
-0.048238445
-0.051158513
-0.042552239
-0.043763912
-0.045823228
-0.048286705
-0.051001741
)
;
    }
    procBoundary3to4
    {
        type            processor;
        value           nonuniform List<scalar> 
25
(
-0.053419469
-0.053342739
-0.053190629
-0.053047005
-0.05293467
-0.053451709
-0.053313188
-0.053153032
-0.053016915
-0.052916085
-0.053484557
-0.053278719
-0.053112147
-0.052986858
-0.052899878
-0.053458431
-0.053223212
-0.053067936
-0.052959819
-0.05288624
-0.053313596
-0.053137151
-0.053022175
-0.052938856
-0.052876676
)
;
    }
    procBoundary3to5throughstreamwiseIn
    {
        type            processorCyclic;
        value           nonuniform List<scalar> 
25
(
-0.044966667
-0.047966497
-0.049736858
-0.050811417
-0.051476561
-0.045353188
-0.04821811
-0.049895946
-0.050905457
-0.051531782
-0.045788361
-0.048514293
-0.050081952
-0.051020712
-0.051606824
-0.04641183
-0.048877197
-0.050295518
-0.051152148
-0.051692461
-0.047194958
-0.049295197
-0.050526082
-0.051287362
-0.051778229
)
;
    }
    procBoundary3to6
    {
        type            processor;
        value           nonuniform List<scalar> 
25
(
-0.051696819
-0.051676396
-0.051821146
-0.052099214
-0.052461641
-0.051730472
-0.051706275
-0.05184199
-0.05210946
-0.052462954
-0.051783002
-0.051752166
-0.051877439
-0.052132003
-0.052471514
-0.051845062
-0.051808044
-0.051922975
-0.052163377
-0.052484935
-0.051907908
-0.051865286
-0.051972747
-0.052199996
-0.052501359
)
;
    }
    procBoundary3to12
    {
        type            processor;
        value           nonuniform List<scalar> 
25
(
-0.047071961
-0.047301006
-0.04825066
-0.049643557
-0.051320778
-0.048965108
-0.048983654
-0.049573143
-0.050546238
-0.051750777
-0.050207687
-0.050166829
-0.050534241
-0.051200042
-0.052054819
-0.051035414
-0.050984477
-0.051215821
-0.051669317
-0.052269269
-0.051592923
-0.051541894
-0.05169279
-0.05200462
-0.052418906
)
;
    }
    procBoundary3to21throughfront
    {
        type            processorCyclic;
        value           nonuniform List<scalar> 
25
(
-0.044253832
-0.047251267
-0.049168929
-0.050399035
-0.051188521
-0.045453534
-0.047732231
-0.049350539
-0.050455603
-0.05119122
-0.047259275
-0.048794484
-0.049985507
-0.050840339
-0.051428698
-0.049092934
-0.050129174
-0.05090671
-0.051461969
-0.051846354
-0.051039374
-0.051654794
-0.052012261
-0.052235101
-0.05237805
)
;
    }
}


// ************************************************************************* //
