/*--------------------------------*- C++ -*----------------------------------*\
| =========                 |                                                 |
| \\      /  F ield         | OpenFOAM: The Open Source CFD Toolbox           |
|  \\    /   O peration     | Version:  3.0.1                                 |
|   \\  /    A nd           | Web:      www.OpenFOAM.org                      |
|    \\/     M anipulation  |                                                 |
\*---------------------------------------------------------------------------*/
FoamFile
{
    version     2.0;
    format      ascii;
    class       surfaceScalarField;
    location    "0.1";
    object      phi;
}
// * * * * * * * * * * * * * * * * * * * * * * * * * * * * * * * * * * * * * //

dimensions      [0 3 -1 0 0 0 0];

internalField   nonuniform List<scalar> 
300
(
0.0019744608
0.0059705359
0.00034252417
0.0035242075
0.0047466686
1.9573854e-06
0.0038980662
0.0032718619
-8.4004225e-05
0.0040873149
0.0020848753
8.6185107e-05
0.0010892209
0.00021948817
0.00075119598
0.003792971
0.00030998629
0.0020497975
0.0032926077
0.00013275292
0.0027110609
0.002456258
4.3033341e-05
0.0030914327
0.0015785194
4.6563038e-05
0.00069240222
4.4481372e-05
0.00025113542
0.0024145517
0.00022839399
0.0012136876
0.0022191725
0.00012940985
0.0018333684
0.0017403643
6.522423e-05
0.0022052567
0.0011317737
3.1738969e-05
0.00045384661
-2.9240884e-06
5.5895664e-05
0.0015414177
0.00014997014
0.00073501231
0.0014687814
9.9532753e-05
0.0012248149
0.0011921069
5.735217e-05
0.0015273004
0.00078959333
2.3172826e-05
0.00031171277
-1.1012939e-05
-1.6684677e-05
9.9924076e-05
0.00045840253
7.5562116e-05
0.00082232792
4.4611858e-05
0.001049416
1.4659626e-05
-1.0978657e-05
0.0016339406
0.0059380851
0.00065745313
0.0034383037
0.0048775688
0.00039486161
0.0040682296
0.0033989626
0.00023358459
0.004220614
0.0020452089
0.00022300826
0.00091411618
0.00023771468
0.00057397601
0.003711443
0.00049361599
0.0019601136
0.0032893541
0.00034541391
0.0027146196
0.0024785174
0.00022368467
0.0030893877
0.0015637058
0.00014550263
0.00064497282
6.9515632e-05
0.00015215485
0.0023361856
0.00032996392
0.0011495185
0.0021893683
0.00025535375
0.0017999022
0.0017325542
0.00017346211
0.0021706217
0.001123233
9.7169541e-05
0.00044574624
1.9178308e-05
5.4589894e-06
0.0014914075
0.00021563713
0.00069283906
0.0014448539
0.00017863185
0.0011906454
0.0011794049
0.00012624541
0.0014931297
0.00078110139
6.8890738e-05
0.00031174827
1.0685546e-05
-4.1046673e-05
0.00015058647
0.00042745513
0.000127252
0.00079237998
9.2875574e-05
0.0010237841
5.3603822e-05
1.2999284e-05
0.0013714368
0.0057743937
0.0011878569
0.0032771038
0.0048281911
0.00090780066
0.0040576387
0.0033890844
0.0005517134
0.0042352774
0.0019676777
0.00028841959
0.00074579786
0.00014706911
0.00042580719
0.0035478311
0.00071671692
0.0018384122
0.003199321
0.00057996229
0.002636429
0.0024283048
0.00038768324
0.0030133723
0.0015153568
0.00021032657
0.0005945944
6.1342558e-05
7.7556442e-05
0.0022218707
0.00043425466
0.0010676382
0.002112662
0.00037133692
0.0017236073
0.0016853489
0.00026420046
0.0020926208
0.0010949516
0.0001479978
0.00043723411
3.4296061e-05
-3.1542665e-05
0.0014263617
0.000272852
0.00064045717
0.0013934831
0.00024173376
0.0011332906
0.0011460433
0.00018019624
0.0014349215
0.0007658169
0.0001061836
0.00031405703
2.9504108e-05
-6.4380258e-05
0.00018028952
0.00039308047
0.00016193943
0.00075310854
0.00012656243
0.0009831786
8.1339941e-05
3.0135591e-05
0.0010914605
0.0053032172
0.0015917944
0.0029210587
0.004500303
0.0012782997
0.0037943122
0.0032250382
0.00076988129
0.0040938401
0.0018895885
0.00028962702
0.00066000782
-2.872631e-05
0.00028907965
0.0032653251
0.0008754711
0.001646146
0.0029906583
0.00073992188
0.0024590489
0.002304796
0.00050123852
0.0028643353
0.0014530119
0.00024894091
0.00056752869
3.2574504e-05
1.4650096e-05
0.0020604343
0.00049678465
0.00096050701
0.0019830301
0.00044264413
0.0016073935
0.001601324
0.00032175769
0.0019788946
0.0010531234
0.00017920447
0.00043243286
4.0837871e-05
-6.2657043e-05
0.0013337778
0.00029655267
0.00057892223
0.0013136715
0.00027359877
0.0010592738
0.0010923975
0.00020772485
0.0013582316
0.00074096563
0.00012633973
0.00031468508
4.2024659e-05
-8.2729367e-05
0.00018542281
0.00035770476
0.00016997131
0.00070788495
0.00014075601
0.00093197031
9.7085482e-05
3.9721492e-05
0.00077802601
0.0045867139
0.0024126004
0.0039617749
0.0033139821
0.0029563584
0.003775365
0.0018489703
0.00072138936
0.00015354848
0.002886489
0.0014074575
0.0026932773
0.0022067136
0.0021252624
0.0026478997
0.0013832658
0.00057581288
-3.9484388e-05
0.0018601212
0.00083961704
0.0018139199
0.0014648216
0.0014872469
0.0018404947
0.001000239
0.00043362172
-8.5608947e-05
0.0012226022
0.00051304736
0.0012100063
0.00097788099
0.001025402
0.0012739016
0.00071169772
0.00031238085
-9.8179936e-05
0.00032848978
0.00066421195
0.00087460034
)
;

boundaryField
{
    movingWall
    {
        type            calculated;
        value           nonuniform 0();
    }
    CPLReceiveMD
    {
        type            calculated;
        value           nonuniform 0();
    }
    streamwiseIn
    {
        type            cyclic;
        value           nonuniform 0();
    }
    streamwiseOut
    {
        type            cyclic;
        value           nonuniform 0();
    }
    front
    {
        type            cyclic;
        value           nonuniform 0();
    }
    back
    {
        type            cyclic;
        value           nonuniform 0();
    }
    procBoundary3to0
    {
        type            processor;
        value           nonuniform List<scalar> 
25
(
-0.009287362
-0.0065016135
-0.0039018613
-0.0024711777
-0.0017314945
-0.0095380421
-0.0070554792
-0.0043276258
-0.0023214853
-0.0011855532
-0.0096169789
-0.0072191176
-0.0044785346
-0.0022209089
-0.00070471487
-0.0088030503
-0.0067154634
-0.0043363953
-0.0022067759
-0.00046383307
-0.0073609119
-0.0057148984
-0.0040101356
-0.0023999067
-0.00074888902
)
;
    }
    procBoundary3to4
    {
        type            processor;
        value           nonuniform List<scalar> 
25
(
0.0046584038
0.0034161133
0.0024198743
0.0016791361
0.0011430322
0.0045038042
0.0033127848
0.002347766
0.001630069
0.0011168966
0.0043318334
0.0031744232
0.0022468964
0.001559329
0.0010715173
0.0041322207
0.0030019398
0.0021241381
0.0014757405
0.001014111
0.0038708224
0.0027969545
0.0019916263
0.0013917164
0.00095523489
)
;
    }
    procBoundary3to5throughstreamwiseIn
    {
        type            processorCyclic;
        value           nonuniform List<scalar> 
25
(
0.0012470914
0.0012759928
0.0010229427
0.00075640745
0.00054420281
0.001677459
0.0014690136
0.0011125207
0.00079437199
0.00055462184
0.0018902409
0.0015675224
0.0011543297
0.00080904544
0.00055395468
0.0019493521
0.0015765526
0.0011470722
0.00079889516
0.00054476795
0.001923768
0.0015371042
0.0011113398
0.0007726338
0.00053072593
)
;
    }
    procBoundary3to6
    {
        type            processor;
        value           nonuniform List<scalar> 
25
(
0.00098440988
0.00096030854
0.00079097627
0.00052396751
0.0001983386
0.00095171739
0.0009444298
0.00078799543
0.00052976859
0.00021193408
0.0009060412
0.00090882057
0.00076590501
0.00052117123
0.00021602123
0.00084969434
0.00085847255
0.00073027369
0.00050247991
0.00021267889
0.00078978601
0.00080282261
0.00068891733
0.00047852123
0.00020575308
)
;
    }
    procBoundary3to12
    {
        type            processor;
        value           nonuniform List<scalar> 
25
(
0.0016791826
0.0013592633
0.00084458762
0.00031372017
-0.0001109649
0.0008782375
0.00076178662
0.00053210081
0.00026930418
2.7381525e-05
0.0004755617
0.00043336709
0.00032764099
0.00019266715
5.9363073e-05
0.00026947524
0.00025327695
0.0002022549
0.00013008532
5.4360336e-05
0.00016064192
0.00015686652
0.00012971421
8.8247122e-05
4.099714e-05
)
;
    }
    procBoundary3to21throughfront
    {
        type            processorCyclic;
        value           nonuniform List<scalar> 
25
(
-0.00017692034
-0.00015270821
-0.00011147515
-6.7279126e-05
-3.1095819e-05
0.00024802348
5.8196431e-05
7.4414204e-07
-9.9380242e-06
-8.9202409e-06
0.00033374253
0.00013155717
5.5904272e-05
2.3706398e-05
7.0499194e-06
0.00010019563
8.7278644e-05
6.2850125e-05
4.0576793e-05
1.8892749e-05
-9.7968898e-05
4.3693472e-05
6.5961806e-05
5.7476734e-05
3.1365999e-05
)
;
    }
}


// ************************************************************************* //
