/*--------------------------------*- C++ -*----------------------------------*\
| =========                 |                                                 |
| \\      /  F ield         | OpenFOAM: The Open Source CFD Toolbox           |
|  \\    /   O peration     | Version:  3.0.1                                 |
|   \\  /    A nd           | Web:      www.OpenFOAM.org                      |
|    \\/     M anipulation  |                                                 |
\*---------------------------------------------------------------------------*/
FoamFile
{
    version     2.0;
    format      ascii;
    class       volScalarField;
    location    "0.1";
    object      p;
}
// * * * * * * * * * * * * * * * * * * * * * * * * * * * * * * * * * * * * * //

dimensions      [0 2 -2 0 0 0 0];

internalField   nonuniform List<scalar> 
125
(
-0.046084436
-0.047108238
-0.048703101
-0.050398874
-0.052039543
-0.048362585
-0.048793342
-0.049714979
-0.050873858
-0.052134779
-0.049840786
-0.050009968
-0.050559812
-0.051350493
-0.052274933
-0.050810799
-0.050867485
-0.051205169
-0.051743839
-0.052403835
-0.05145108
-0.051458994
-0.051669007
-0.052032995
-0.052491944
-0.045130135
-0.046442408
-0.048237509
-0.050020749
-0.051780563
-0.047848035
-0.048388642
-0.049422219
-0.050670874
-0.052037519
-0.049558325
-0.049770262
-0.05038001
-0.051232888
-0.052230092
-0.050646749
-0.050722966
-0.051093766
-0.051670102
-0.052371665
-0.051348056
-0.051367297
-0.051596617
-0.051983582
-0.052470855
-0.04447573
-0.04593626
-0.047816025
-0.049596187
-0.051412674
-0.04746464
-0.048056077
-0.049144587
-0.050439805
-0.051877365
-0.049332416
-0.049562144
-0.050206207
-0.051100668
-0.052151004
-0.050511218
-0.05059412
-0.050984806
-0.051588031
-0.052324867
-0.051262198
-0.051284122
-0.0515243
-0.051929428
-0.052439893
-0.044244879
-0.045644715
-0.047511724
-0.049273548
-0.051119808
-0.047280606
-0.04784296
-0.048933821
-0.050249203
-0.051733539
-0.049205151
-0.04942106
-0.050070954
-0.050985539
-0.052070478
-0.050427909
-0.050503053
-0.050897
-0.05151428
-0.05227528
-0.051207955
-0.051223684
-0.051465802
-0.051881119
-0.052406358
-0.044253832
-0.045453534
-0.047259275
-0.049092934
-0.051039374
-0.047251267
-0.047732231
-0.048794484
-0.050129174
-0.051654794
-0.049168929
-0.049350539
-0.049985507
-0.05090671
-0.052012261
-0.050399035
-0.050455603
-0.050840339
-0.051461969
-0.052235101
-0.051188521
-0.05119122
-0.051428698
-0.051846354
-0.05237805
)
;

boundaryField
{
    movingWall
    {
        type            zeroGradient;
    }
    CPLReceiveMD
    {
        type            zeroGradient;
    }
    streamwiseIn
    {
        type            cyclic;
    }
    streamwiseOut
    {
        type            cyclic;
    }
    front
    {
        type            cyclic;
    }
    back
    {
        type            cyclic;
    }
    procBoundary21to3throughback
    {
        type            processorCyclic;
        value           nonuniform List<scalar> 
25
(
-0.044342174
-0.047327571
-0.049224651
-0.050432669
-0.051204064
-0.045329403
-0.047703079
-0.049350145
-0.050460562
-0.051195676
-0.047092313
-0.048728655
-0.049957527
-0.050828471
-0.051425168
-0.049042778
-0.050085485
-0.050875248
-0.051441655
-0.051836897
-0.05108828
-0.051632892
-0.051979232
-0.052206324
-0.052362347
)
;
    }
    procBoundary21to12
    {
        type            processor;
        value           nonuniform List<scalar> 
25
(
-0.047038857
-0.047718541
-0.049058074
-0.050587218
-0.052062133
-0.048886143
-0.049161448
-0.049942734
-0.050986283
-0.052130869
-0.0501403
-0.050232574
-0.050702817
-0.051419498
-0.052267926
-0.050986351
-0.051005199
-0.051298034
-0.051788524
-0.05239541
-0.051550623
-0.051546441
-0.051735365
-0.052071469
-0.052495731
)
;
    }
    procBoundary21to18
    {
        type            processor;
        value           nonuniform List<scalar> 
25
(
-0.042566551
-0.044881578
-0.047718048
-0.050186985
-0.052145532
-0.040816537
-0.043860616
-0.047033862
-0.049425293
-0.051420154
-0.039703852
-0.043193547
-0.046498753
-0.048620286
-0.050499396
-0.039525805
-0.042914227
-0.046173932
-0.04807147
-0.049822625
-0.039644216
-0.042521818
-0.045633718
-0.047826931
-0.049867842
)
;
    }
    procBoundary21to22
    {
        type            processor;
        value           nonuniform List<scalar> 
25
(
-0.053687759
-0.053455926
-0.053253442
-0.053094684
-0.052978312
-0.053756877
-0.053527121
-0.053305219
-0.053123496
-0.052991164
-0.053650943
-0.053511447
-0.053306967
-0.05312601
-0.052992299
-0.053482539
-0.053442808
-0.053272997
-0.053106342
-0.052980412
-0.053408659
-0.053381316
-0.053227759
-0.053073915
-0.052958909
)
;
    }
    procBoundary21to23throughstreamwiseIn
    {
        type            processorCyclic;
        value           nonuniform List<scalar> 
25
(
-0.046296796
-0.048744403
-0.050212452
-0.05110982
-0.05166538
-0.045133584
-0.048173229
-0.049912106
-0.050941779
-0.051568323
-0.044407599
-0.047797026
-0.049704753
-0.050820243
-0.051493378
-0.044314317
-0.047690109
-0.049620843
-0.05076049
-0.051451966
-0.044587777
-0.047778217
-0.049643756
-0.050762934
-0.051447279
)
;
    }
    procBoundary21to24
    {
        type            processor;
        value           nonuniform List<scalar> 
25
(
-0.051864799
-0.051860336
-0.051996836
-0.052244136
-0.052559317
-0.051798071
-0.051796459
-0.051942731
-0.052205565
-0.052542332
-0.051740607
-0.05173986
-0.051892267
-0.052167315
-0.052521233
-0.051701026
-0.051697184
-0.051851788
-0.052134021
-0.052498529
-0.051684019
-0.051672979
-0.051826594
-0.052110883
-0.052477734
)
;
    }
}


// ************************************************************************* //
