/*--------------------------------*- C++ -*----------------------------------*\
| =========                 |                                                 |
| \\      /  F ield         | OpenFOAM: The Open Source CFD Toolbox           |
|  \\    /   O peration     | Version:  3.0.1                                 |
|   \\  /    A nd           | Web:      www.OpenFOAM.org                      |
|    \\/     M anipulation  |                                                 |
\*---------------------------------------------------------------------------*/
FoamFile
{
    version     2.0;
    format      ascii;
    class       surfaceScalarField;
    location    "0.1";
    object      phi;
}
// * * * * * * * * * * * * * * * * * * * * * * * * * * * * * * * * * * * * * //

dimensions      [0 3 -1 0 0 0 0];

internalField   nonuniform List<scalar> 
300
(
0.002047946
0.0045560107
-0.0019088043
0.0031884952
0.0033694335
-0.0013320319
0.0033888097
0.0020227558
-0.00093155097
0.0032776435
0.00094919068
-0.00075642284
0.00019025556
-0.00051789175
0.00086184925
0.0029553516
-0.0010292167
0.0018421986
0.0024318261
-0.00080956013
0.0023153987
0.0016881823
-0.00058567248
0.0025186225
0.0009521916
-0.00040604521
0.00028002544
-0.0001944551
0.00033857935
0.0019387529
-0.000564897
0.0010987742
0.0017135336
-0.0004793804
0.0015794772
0.0012892895
-0.00035956766
0.0018463556
0.00078569638
-0.00023516499
0.00025748316
-8.9608663e-05
0.00011350137
0.0012793689
-0.00032798702
0.00067465558
0.0011817257
-0.0002889163
0.0010759213
0.00092651854
-0.00022269269
0.0013181085
0.00057753278
-0.00014737908
0.00017598842
-6.4253186e-05
1.5919512e-05
-0.00020589349
0.00041950823
-0.00018324358
0.00072695453
-0.00014464825
0.0009165501
-9.8721766e-05
-4.2111169e-05
0.0026246053
0.0054358216
-0.0013086753
0.00358901
0.0038919645
-0.0010122793
0.0035641362
0.0023686678
-0.00084299192
0.0035164466
0.0012996946
-0.00084907438
0.00051385348
-0.00073554396
0.0010814452
0.0034198496
-0.00076657993
0.0020660909
0.002762128
-0.00066499052
0.0024951074
0.0019143932
-0.00055516798
0.0027303244
0.0011231828
-0.00046204831
0.00038493196
-0.00032018292
0.00042407162
0.0021757797
-0.00045159896
0.0012185936
0.0019041062
-0.00041604472
0.0017039208
0.0014262618
-0.00034745174
0.0019919666
0.00087356402
-0.00026431999
0.00028288407
-0.00015806774
0.00015256444
0.0014015295
-0.00027086386
0.00074088384
0.0012874612
-0.00025750494
0.0011512536
0.0010046171
-0.0002177604
0.0014012596
0.00062623135
-0.00016401267
0.00019815014
-9.3498684e-05
3.856799e-05
-0.00017154581
0.000458106
-0.00016618222
0.00077288838
-0.00014448184
0.00097317116
-0.00010818822
-6.1843498e-05
0.0029209356
0.0059780084
-0.00046115148
0.0037582769
0.00423921
-0.00058250455
0.003558118
0.0026564431
-0.00060810079
0.003630011
0.0016868348
-0.00064489071
0.0009294867
-0.00058547303
0.0011830156
0.0037349038
-0.0003675044
0.0021759036
0.0030110963
-0.00042568594
0.0025882466
0.0021221346
-0.0004210685
0.002872223
0.0013209776
-0.00038085358
0.00054713653
-0.00028745455
0.00045961422
0.0023565564
-0.00025411245
0.0012871813
0.0020626787
-0.00028177674
0.0017870599
0.0015559848
-0.00027017552
0.0020982334
0.00097391109
-0.00023000264
0.00034749497
-0.00016089496
0.00016591778
0.0015008708
-0.00016634314
0.0007806259
0.0013788062
-0.00018187032
0.0012050047
0.0010779172
-0.00017538121
0.0014717806
0.00068207703
-0.00014731803
0.00022982292
-9.9055602e-05
4.3929383e-05
-0.00010831006
0.0004798054
-0.00012069788
0.00080918356
-0.00011683329
0.0010195193
-9.6487795e-05
-6.698007e-05
0.0027995252
0.00607152
1.859626e-05
0.003732596
0.0043959271
-0.00038157431
0.0035212799
0.0028433867
-0.00050418063
0.0036893605
0.0019509153
-0.00036076183
0.0012276901
-0.00016071751
0.0011248226
0.0038482454
-5.8088285e-05
0.0021804842
0.0031549654
-0.00022086242
0.0026284189
0.0022730027
-0.00027814746
0.0029655964
0.0014718541
-0.00023966218
0.0006737415
-0.0001572995
0.00043194587
0.0024442944
-7.2038278e-05
0.0012987656
0.0021625581
-0.00014065786
0.0018272116
0.0016507637
-0.00017055421
0.0021673246
0.0010566004
-0.00015738771
0.00040935603
-0.00011627566
0.0001503885
0.0015588874
-5.7501696e-05
0.00078710741
0.0014399657
-9.4665314e-05
0.0012330585
0.0011364584
-0.00011310474
0.0015200352
0.00073290865
-0.00010444691
0.00026190642
-8.0245147e-05
3.1540311e-05
-3.8735612e-05
0.00048366691
-6.4788352e-05
0.00082952563
-7.4076881e-05
0.0010490241
-6.941811e-05
-5.6535716e-05
0.0023993616
0.0059947282
0.0036099058
0.0045566877
0.0036645404
0.003069527
0.0038892499
0.0020720133
0.001231021
0.00096206252
0.0038341906
0.002123161
0.0032351132
0.002666821
0.0023805609
0.0030478603
0.0015540959
0.00071476955
0.00036333354
0.0024587526
0.0012688474
0.0022084839
0.0018403331
0.0017081607
0.0022083826
0.0011095013
0.00044537526
0.00011322721
0.001577608
0.00076865676
0.0014698024
0.0012416947
0.0011754548
0.0015442107
0.00076791555
0.00028560969
5.4876895e-06
0.0004743731
0.00083417518
0.0010618952
)
;

boundaryField
{
    movingWall
    {
        type            calculated;
        value           nonuniform 0();
    }
    CPLReceiveMD
    {
        type            calculated;
        value           nonuniform 0();
    }
    streamwiseIn
    {
        type            cyclic;
        value           nonuniform 0();
    }
    streamwiseOut
    {
        type            cyclic;
        value           nonuniform 0();
    }
    front
    {
        type            cyclic;
        value           nonuniform 0();
    }
    back
    {
        type            cyclic;
        value           nonuniform 0();
    }
    procBoundary21to3throughback
    {
        type            processorCyclic;
        value           nonuniform List<scalar> 
25
(
0.00017692034
0.00015270821
0.00011147515
6.7279126e-05
3.1095819e-05
-0.00024802348
-5.8196431e-05
-7.4414204e-07
9.9380242e-06
8.9202409e-06
-0.00033374253
-0.00013155717
-5.5904272e-05
-2.3706398e-05
-7.0499194e-06
-0.00010019563
-8.7278644e-05
-6.2850125e-05
-4.0576793e-05
-1.8892749e-05
9.7968898e-05
-4.3693472e-05
-6.5961806e-05
-5.7476734e-05
-3.1365999e-05
)
;
    }
    procBoundary21to12
    {
        type            processor;
        value           nonuniform List<scalar> 
25
(
0.0019090161
0.0012208749
0.00071010565
0.00037669774
4.5208685e-05
0.0010471928
0.00073628459
0.00045552617
0.00022481063
-7.9148565e-06
0.00059893291
0.00044511721
0.00028591192
0.00013792235
-1.4086321e-05
0.00035094147
0.00027526998
0.00018559122
8.9273731e-05
-1.688664e-05
0.000198937
0.00017473139
0.00013256671
7.6840039e-05
7.5289471e-06
)
;
    }
    procBoundary21to18
    {
        type            processor;
        value           nonuniform List<scalar> 
25
(
-0.0070367416
-0.0044537891
-0.001970196
-0.00042364548
0.00021238331
-0.0086283144
-0.0051639338
-0.0024072325
-0.0011908497
-0.00072095723
-0.0095450791
-0.0054856952
-0.0026343551
-0.0019519913
-0.0018271688
-0.0094394279
-0.0054612169
-0.0026751808
-0.0024045098
-0.0025955649
-0.0092204643
-0.0058639732
-0.0032512346
-0.002532498
-0.0023438753
)
;
    }
    procBoundary21to22
    {
        type            processor;
        value           nonuniform List<scalar> 
25
(
0.0032927407
0.0026388857
0.0019543362
0.0013797203
0.00097130101
0.0039491857
0.002976033
0.0021476569
0.0015016729
0.00103915
0.0044731574
0.0032650289
0.0023093209
0.0016002597
0.0011032929
0.0047218112
0.0034152257
0.0024023102
0.0016600148
0.0011465291
0.0047346706
0.0034494398
0.0024280961
0.0016754318
0.0011600914
)
;
    }
    procBoundary21to23throughstreamwiseIn
    {
        type            processorCyclic;
        value           nonuniform List<scalar> 
25
(
0.00042275521
0.00076182235
0.00074188314
0.00059698914
0.00042789274
5.4668946e-06
0.00064881274
0.00070620377
0.00058902864
0.00043980237
-0.00013747756
0.00066326652
0.00074332851
0.00061701058
0.00046160887
0.00013748846
0.00081738148
0.00082997937
0.00066409465
0.00048725501
0.00066613782
0.0010520728
0.00094815091
0.00072668286
0.00051673021
)
;
    }
    procBoundary21to24
    {
        type            processor;
        value           nonuniform List<scalar> 
25
(
0.00082649255
0.00080167583
0.00065476696
0.00042168155
0.00013455671
0.00089910921
0.00085734726
0.00069136997
0.00044338565
0.00014276154
0.00095588058
0.00091048504
0.00073506537
0.00047518694
0.00016247564
0.00098514489
0.00094595358
0.00077105478
0.00050518121
0.00018411448
0.00098992424
0.00096240095
0.00079481075
0.00052838438
0.00019911894
)
;
    }
}


// ************************************************************************* //
