/*--------------------------------*- C++ -*----------------------------------*\
| =========                 |                                                 |
| \\      /  F ield         | OpenFOAM: The Open Source CFD Toolbox           |
|  \\    /   O peration     | Version:  3.0.1                                 |
|   \\  /    A nd           | Web:      www.OpenFOAM.org                      |
|    \\/     M anipulation  |                                                 |
\*---------------------------------------------------------------------------*/
FoamFile
{
    version     2.0;
    format      ascii;
    class       volVectorField;
    location    "0.1";
    object      U;
}
// * * * * * * * * * * * * * * * * * * * * * * * * * * * * * * * * * * * * * //

dimensions      [0 1 -1 0 0 0 0];

internalField   nonuniform List<vector> 
125
(
(2.0327846e-06 1.4489792e-05 -4.773108e-06)
(6.5466846e-06 9.7787039e-06 -3.1919362e-06)
(8.2221734e-06 4.9915014e-06 -2.0527331e-06)
(8.3324243e-06 1.7166992e-06 -1.4168413e-06)
(8.2121852e-06 -2.6981401e-08 -7.0419483e-07)
(1.2557833e-07 9.3880866e-06 -2.5960404e-06)
(3.3806337e-06 7.2508836e-06 -1.9328121e-06)
(5.1972171e-06 4.6383278e-06 -1.3019138e-06)
(6.0422797e-06 2.3766226e-06 -7.888312e-07)
(6.4464495e-06 5.8807743e-07 -2.3323544e-07)
(-5.0389731e-07 6.1169778e-06 -1.4550555e-06)
(1.7969258e-06 5.1812564e-06 -1.1558686e-06)
(3.3479125e-06 3.7216278e-06 -8.0704303e-07)
(4.2821739e-06 2.1723036e-06 -4.6647776e-07)
(4.7506796e-06 6.7183655e-07 -9.4423325e-08)
(-6.0426524e-07 4.0222567e-06 -8.4878408e-07)
(9.8528373e-07 3.61882e-06 -7.0534106e-07)
(2.1882643e-06 2.7696455e-06 -5.1043575e-07)
(2.9924884e-06 1.7040041e-06 -2.9586338e-07)
(3.3722102e-06 5.418345e-07 -5.9213005e-08)
(-5.149305e-07 2.6321303e-06 -5.0608864e-07)
(5.443146e-07 2.4791257e-06 -4.4751024e-07)
(1.4330965e-06 1.9765493e-06 -3.4654758e-07)
(2.054363e-06 1.2489989e-06 -2.1946768e-07)
(2.3597842e-06 3.8817576e-07 -6.2049786e-08)
(3.2755461e-06 1.757872e-05 -4.0225962e-06)
(7.7683649e-06 1.1319843e-05 -2.9310113e-06)
(8.9418183e-06 5.9705089e-06 -2.2187828e-06)
(8.8499886e-06 3.1135722e-06 -2.0074528e-06)
(9.3311655e-06 1.543404e-06 -1.5670381e-06)
(5.4146038e-07 1.106841e-05 -2.2451309e-06)
(3.9350788e-06 8.3170726e-06 -1.8435752e-06)
(5.7016911e-06 5.3536525e-06 -1.4264186e-06)
(6.53149e-06 3.0284915e-06 -1.0854408e-06)
(7.1325255e-06 1.1233879e-06 -6.434958e-07)
(-3.5238567e-07 6.9937489e-06 -1.2708277e-06)
(2.0536074e-06 5.8323069e-06 -1.1194917e-06)
(3.6532372e-06 4.1755868e-06 -8.8396854e-07)
(4.6197241e-06 2.4958309e-06 -6.2451431e-07)
(5.1743533e-06 8.3468171e-07 -3.0968399e-07)
(-5.4546729e-07 4.4711486e-06 -7.4866528e-07)
(1.1169167e-06 3.9891308e-06 -6.8312757e-07)
(2.3652151e-06 3.0384213e-06 -5.5065738e-07)
(3.1905848e-06 1.8746552e-06 -3.8931083e-07)
(3.6285939e-06 6.0124961e-07 -1.972274e-07)
(-5.0149925e-07 2.8755456e-06 -4.7184253e-07)
(6.2088005e-07 2.6808355e-06 -4.3682374e-07)
(1.5387616e-06 2.1198868e-06 -3.6144882e-07)
(2.1825524e-06 1.3369724e-06 -2.5866506e-07)
(2.5153725e-06 4.2611932e-07 -1.2995751e-07)
(3.8249162e-06 1.9402296e-05 -2.2120971e-06)
(8.3504981e-06 1.2156474e-05 -1.9932844e-06)
(9.145732e-06 6.6145369e-06 -1.8137647e-06)
(8.984169e-06 4.5486193e-06 -1.867573e-06)
(1.0128085e-05 3.4448718e-06 -1.6515413e-06)
(6.5045373e-07 1.2139855e-05 -1.4175123e-06)
(4.1993459e-06 9.0624032e-06 -1.3632694e-06)
(5.9553515e-06 5.973142e-06 -1.2202691e-06)
(6.8252025e-06 3.759561e-06 -1.0536815e-06)
(7.6711601e-06 1.8454315e-06 -7.5966055e-07)
(-3.5433255e-07 7.6134433e-06 -8.8209764e-07)
(2.183785e-06 6.341704e-06 -8.7225326e-07)
(3.8428899e-06 4.5973891e-06 -7.7203583e-07)
(4.8564585e-06 2.8684335e-06 -6.1793385e-07)
(5.5092765e-06 1.118105e-06 -3.9875222e-07)
(-5.6374278e-07 4.8212418e-06 -5.4649397e-07)
(1.1832916e-06 4.301488e-06 -5.4921553e-07)
(2.482081e-06 3.2921652e-06 -4.9143477e-07)
(3.3459184e-06 2.0698533e-06 -3.8918059e-07)
(3.8399836e-06 7.2156099e-07 -2.4071431e-07)
(-5.2205179e-07 3.0706574e-06 -3.4981688e-07)
(6.5470831e-07 2.8614139e-06 -3.5860239e-07)
(1.6112552e-06 2.2661092e-06 -3.2665041e-07)
(2.2858543e-06 1.4465103e-06 -2.5585404e-07)
(2.6534881e-06 4.9033657e-07 -1.6103842e-07)
(3.3294305e-06 1.9387461e-05 -5.523465e-07)
(8.1666974e-06 1.23221e-05 -1.2044081e-06)
(9.0675298e-06 6.8997608e-06 -1.3898193e-06)
(9.012212e-06 5.4442513e-06 -1.2567737e-06)
(1.051306e-05 4.7774014e-06 -9.328151e-07)
(3.8507183e-07 1.239841e-05 -5.3150548e-07)
(4.1323221e-06 9.4381037e-06 -8.0774805e-07)
(6.011279e-06 6.3953814e-06 -8.7368236e-07)
(6.9920985e-06 4.2781306e-06 -7.7543378e-07)
(7.975628e-06 2.376177e-06 -5.5591085e-07)
(-4.9723364e-07 7.8647672e-06 -4.0743727e-07)
(2.1636692e-06 6.6463608e-06 -5.2781762e-07)
(3.9075566e-06 4.9044211e-06 -5.5074078e-07)
(4.9930077e-06 3.1603318e-06 -4.8413413e-07)
(5.711883e-06 1.353628e-06 -3.4644566e-07)
(-6.4201123e-07 5.0034294e-06 -2.7968916e-07)
(1.1719759e-06 4.5027816e-06 -3.4556644e-07)
(2.52525e-06 3.4838067e-06 -3.6053063e-07)
(3.4413053e-06 2.236735e-06 -3.1466093e-07)
(3.9749996e-06 8.3896341e-07 -2.2411864e-07)
(-5.6959674e-07 3.1797608e-06 -1.8375929e-07)
(6.4404652e-07 2.9821999e-06 -2.3181704e-07)
(1.64151e-06 2.3842703e-06 -2.3860846e-07)
(2.3481644e-06 1.5475361e-06 -2.0736591e-07)
(2.7444165e-06 5.5747981e-07 -1.5439274e-07)
(2.168236e-06 1.9017904e-05 2.4488979e-07)
(7.5130253e-06 1.3026043e-05 -7.8662642e-07)
(9.0933665e-06 7.9017688e-06 -1.0471252e-06)
(9.4411732e-06 5.7556241e-06 -5.7591507e-07)
(1.0779075e-05 4.4675898e-06 -7.8192647e-08)
(-1.1182452e-07 1.2284764e-05 1.1861671e-07)
(3.857169e-06 9.7389937e-06 -3.4851433e-07)
(5.9876658e-06 6.8122205e-06 -5.1186867e-07)
(7.142974e-06 4.5322006e-06 -4.0847866e-07)
(8.1212253e-06 2.431801e-06 -2.5114959e-07)
(-7.3074752e-07 7.8652597e-06 4.9495129e-08)
(2.0404815e-06 6.8038856e-06 -1.7656429e-07)
(3.8865734e-06 5.1105408e-06 -2.8291027e-07)
(5.0607536e-06 3.3292064e-06 -2.7517766e-07)
(5.7954399e-06 1.4498972e-06 -2.2774575e-07)
(-7.6671257e-07 5.0449198e-06 1.2327228e-08)
(1.1024502e-06 4.5974886e-06 -1.0580876e-07)
(2.5129865e-06 3.6042975e-06 -1.709272e-07)
(3.4823304e-06 2.3466216e-06 -1.8121666e-07)
(4.0244925e-06 9.1361391e-07 -1.7212594e-07)
(-6.3901236e-07 3.2091521e-06 -9.5002499e-09)
(5.9985914e-07 3.0400651e-06 -6.9788803e-08)
(1.6357063e-06 2.4627167e-06 -1.0136906e-07)
(2.37007e-06 1.6203029e-06 -1.1036038e-07)
(2.77746e-06 6.0586431e-07 -1.0986557e-07)
)
;

boundaryField
{
    movingWall
    {
        type            fixedValue;
        value           nonuniform 0();
    }
    CPLReceiveMD
    {
        type            fixedValue;
        value           nonuniform 0();
    }
    streamwiseIn
    {
        type            cyclic;
    }
    streamwiseOut
    {
        type            cyclic;
    }
    front
    {
        type            cyclic;
    }
    back
    {
        type            cyclic;
    }
    procBoundary21to3throughback
    {
        type            processorCyclic;
        value           nonuniform List<vector> 
25
(
(9.1064923e-07 1.9071098e-05 6.4893446e-07)
(-6.554118e-07 1.2203015e-05 5.7812026e-07)
(-9.6453044e-07 7.7584778e-06 4.2470879e-07)
(-8.7555321e-07 4.944434e-06 2.7150675e-07)
(-7.010779e-07 3.1570244e-06 1.637558e-07)
(6.8746823e-06 1.4060061e-05 -3.080294e-07)
(3.5018367e-06 1.0048166e-05 9.2913849e-08)
(1.8312638e-06 6.8890664e-06 1.6069246e-07)
(9.8872149e-07 4.6095571e-06 1.3677875e-07)
(5.5217771e-07 3.0361678e-06 1.0558165e-07)
(9.2782411e-06 8.9674229e-06 -5.2254731e-07)
(5.9513146e-06 7.1595963e-06 -1.1088441e-07)
(3.8089433e-06 5.2453626e-06 1.1536901e-08)
(2.4498421e-06 3.6653479e-06 4.200868e-08)
(1.6009384e-06 2.4787319e-06 4.693507e-08)
(9.9811446e-06 5.695214e-06 -1.7635756e-08)
(7.2528175e-06 4.578868e-06 -5.1015162e-08)
(5.0481722e-06 3.3875938e-06 -3.8951351e-08)
(3.4401066e-06 2.4015523e-06 -2.178255e-08)
(2.3396679e-06 1.641877e-06 -5.3013278e-09)
(1.0931336e-05 3.5255201e-06 3.9701042e-07)
(8.1341154e-06 2.2266239e-06 9.9959527e-10)
(5.7812842e-06 1.4326516e-06 -8.6109404e-08)
(4.0079951e-06 9.568436e-07 -8.5615198e-08)
(2.7405409e-06 6.3752114e-07 -5.2932224e-08)
)
;
    }
    procBoundary21to12
    {
        type            processor;
        value           nonuniform List<vector> 
25
(
(5.3622472e-07 1.1392251e-05 -4.06337e-06)
(5.04799e-06 8.263412e-06 -2.4777648e-06)
(7.1667234e-06 4.3441395e-06 -1.1385718e-06)
(7.5014504e-06 1.1904169e-06 -2.1336419e-07)
(7.1492213e-06 -5.0170022e-07 4.7552155e-07)
(-4.386355e-07 7.7503575e-06 -2.2408907e-06)
(2.6409522e-06 6.2810049e-06 -1.5066707e-06)
(4.5577102e-06 4.1079624e-06 -8.0885409e-07)
(5.4628116e-06 2.0781279e-06 -2.4110919e-07)
(5.7972055e-06 5.136164e-07 2.4851232e-07)
(-6.796527e-07 5.2464925e-06 -1.2576681e-06)
(1.4055949e-06 4.6048359e-06 -9.1171784e-07)
(2.9638464e-06 3.3841088e-06 -5.3777591e-07)
(3.9071044e-06 2.0028631e-06 -1.9005438e-07)
(4.3635872e-06 6.6065928e-07 1.3607246e-07)
(-6.4300711e-07 3.5221817e-06 -7.2010061e-07)
(7.7856839e-07 3.2807724e-06 -5.5525029e-07)
(1.9557374e-06 2.5779258e-06 -3.5006556e-07)
(2.7393621e-06 1.6276451e-06 -1.3571896e-07)
(3.1546223e-06 5.6887607e-07 8.1842996e-08)
(-5.3753232e-07 2.3534372e-06 -4.212622e-07)
(4.6133899e-07 2.2623404e-06 -3.5080096e-07)
(1.310719e-06 1.8309021e-06 -2.4327153e-07)
(1.8980546e-06 1.1832848e-06 -1.168728e-07)
(2.201762e-06 4.1887759e-07 1.2072451e-08)
)
;
    }
    procBoundary21to18
    {
        type            processor;
        value           nonuniform List<vector> 
25
(
(6.9139213e-06 2.2260317e-05 -8.7825099e-06)
(1.2878924e-05 1.2391004e-05 -4.9892427e-06)
(1.3259222e-05 3.6264441e-06 -2.9282832e-06)
(1.1060762e-05 -1.262506e-06 -2.7119866e-06)
(9.238951e-06 -2.477815e-06 -2.2783397e-06)
(1.0637721e-05 2.7919923e-05 -7.1576352e-06)
(1.554329e-05 1.4078785e-05 -4.2213448e-06)
(1.3907962e-05 4.4228378e-06 -3.0494542e-06)
(1.0958595e-05 1.8630227e-06 -3.9173609e-06)
(1.100324e-05 2.3695884e-06 -4.115349e-06)
(1.277675e-05 3.0970152e-05 -3.2262529e-06)
(1.6987105e-05 1.4171897e-05 -2.3655266e-06)
(1.3563206e-05 4.1252298e-06 -2.149521e-06)
(9.9948676e-06 4.9093283e-06 -3.3843606e-06)
(1.1936003e-05 7.8446901e-06 -3.9936579e-06)
(1.1732884e-05 2.958574e-05 -1.4711311e-07)
(1.6620022e-05 1.3020893e-05 -1.6773176e-06)
(1.2889127e-05 2.7286368e-06 -2.1609143e-06)
(9.1144579e-06 6.3745629e-06 -1.9824386e-06)
(1.2212943e-05 1.1827324e-05 -1.5786289e-06)
(8.6776e-06 2.8493416e-05 4.3497963e-07)
(1.4973304e-05 1.5070277e-05 -2.0864754e-06)
(1.3258085e-05 5.9863683e-06 -2.5795308e-06)
(1.0577153e-05 6.5148684e-06 -6.5944134e-07)
(1.286098e-05 9.2798729e-06 1.0007317e-06)
)
;
    }
    procBoundary21to22
    {
        type            processor;
        value           nonuniform List<vector> 
25
(
(8.7953252e-06 -1.0758024e-06 7.6510286e-07)
(6.739377e-06 -1.084883e-06 5.464888e-07)
(4.8645264e-06 -9.0193567e-07 3.4428832e-07)
(3.3854993e-06 -6.8689131e-07 1.7810814e-07)
(2.3494941e-06 -4.9414817e-07 9.4142789e-08)
(1.068176e-05 -7.5714269e-07 -9.1552904e-08)
(7.6755172e-06 -1.1283207e-06 1.392699e-07)
(5.3646356e-06 -1.0081007e-06 1.3408264e-07)
(3.6816592e-06 -7.8432565e-07 7.846252e-08)
(2.5171519e-06 -5.5630169e-07 3.5038842e-08)
(1.218102e-05 2.8377684e-07 -6.8567838e-07)
(8.4472689e-06 -8.5924746e-07 -2.1057899e-07)
(5.7869075e-06 -9.6274305e-07 -8.0404119e-08)
(3.9321272e-06 -7.8593511e-07 -4.2774829e-08)
(2.6692589e-06 -5.7431257e-07 -2.6809987e-08)
(1.2888716e-05 1.2069366e-06 -6.0578414e-07)
(8.859641e-06 -5.2304643e-07 -3.2536862e-07)
(6.04098e-06 -8.4029656e-07 -1.9797079e-07)
(4.0932083e-06 -7.3073152e-07 -1.3015203e-07)
(2.7750618e-06 -5.5409069e-07 -8.3394047e-08)
(1.2797581e-05 1.0158694e-06 -1.5763881e-07)
(8.9028362e-06 -4.5143411e-07 -2.4999124e-07)
(6.1080273e-06 -7.6752646e-07 -2.0577652e-07)
(4.151873e-06 -6.7135837e-07 -1.4822118e-07)
(2.8186668e-06 -5.0935983e-07 -1.1423606e-07)
)
;
    }
    procBoundary21to23throughstreamwiseIn
    {
        type            processorCyclic;
        value           nonuniform List<vector> 
25
(
(-5.2709763e-06 1.6567047e-05 -5.9312576e-06)
(-4.2679363e-06 9.7875655e-06 -2.912908e-06)
(-3.1839115e-06 5.9111e-06 -1.4831356e-06)
(-2.2636114e-06 3.6298532e-06 -8.0288088e-07)
(-1.5627339e-06 2.275655e-06 -4.8354331e-07)
(-5.0717649e-06 2.1416103e-05 -4.723143e-06)
(-4.3737215e-06 1.1945004e-05 -2.3684505e-06)
(-3.3169732e-06 6.9192346e-06 -1.2690565e-06)
(-2.3770498e-06 4.1382444e-06 -7.2365003e-07)
(-1.64763e-06 2.5380576e-06 -4.2970244e-07)
(-5.3074708e-06 2.428277e-05 -2.0471688e-06)
(-4.6859031e-06 1.3241652e-05 -1.2068809e-06)
(-3.5492885e-06 7.5559005e-06 -7.274053e-07)
(-2.525471e-06 4.4692073e-06 -4.5267159e-07)
(-1.7429506e-06 2.7174507e-06 -2.905049e-07)
(-6.150419e-06 2.3669912e-05 4.5227217e-07)
(-5.1588757e-06 1.3264768e-05 -4.5469809e-08)
(-3.8194291e-06 7.6734439e-06 -1.5140265e-07)
(-2.6772794e-06 4.5751447e-06 -1.4259665e-07)
(-1.8291027e-06 2.792994e-06 -1.1485647e-07)
(-7.3668385e-06 2.1815468e-05 1.6321548e-06)
(-5.7047435e-06 1.2637977e-05 6.919693e-07)
(-4.088339e-06 7.4587737e-06 2.9073251e-07)
(-2.8140787e-06 4.5057535e-06 1.2773322e-07)
(-1.8985132e-06 2.7677868e-06 6.1692358e-08)
)
;
    }
    procBoundary21to24
    {
        type            processor;
        value           nonuniform List<vector> 
25
(
(-4.0079452e-07 1.6894123e-06 -3.266757e-07)
(3.297027e-07 1.6431627e-06 -2.8684597e-07)
(9.5813752e-07 1.3427101e-06 -2.2145105e-07)
(1.4041149e-06 8.6524585e-07 -1.4217578e-07)
(1.6290631e-06 2.8625595e-07 -5.1971283e-08)
(-4.0268938e-07 1.8369198e-06 -3.1013825e-07)
(3.6125793e-07 1.7662359e-06 -3.0083932e-07)
(1.0213519e-06 1.4315212e-06 -2.6109751e-07)
(1.4968174e-06 9.1900403e-07 -1.9179947e-07)
(1.7353198e-06 2.9610151e-07 -9.5066593e-08)
(-4.1977955e-07 1.950892e-06 -2.4227872e-07)
(3.7874344e-07 1.8741623e-06 -2.4785114e-07)
(1.0671774e-06 1.5223433e-06 -2.2705127e-07)
(1.5701458e-06 9.8339093e-07 -1.786168e-07)
(1.8191607e-06 3.2604007e-07 -1.0935382e-07)
(-4.5280535e-07 2.0094358e-06 -1.4119448e-07)
(3.7648539e-07 1.9448115e-06 -1.6691528e-07)
(1.0905863e-06 1.5936652e-06 -1.6392315e-07)
(1.6145148e-06 1.0423289e-06 -1.4086829e-07)
(1.8733728e-06 3.6586669e-07 -1.085909e-07)
(-4.9443427e-07 2.0103022e-06 -1.0409237e-08)
(3.5601476e-07 1.9727795e-06 -5.1840823e-08)
(1.0932244e-06 1.6361385e-06 -7.6465574e-08)
(1.625478e-06 1.0872674e-06 -8.6875794e-08)
(1.8948297e-06 4.0499024e-07 -9.2084608e-08)
)
;
    }
}


// ************************************************************************* //
