/*--------------------------------*- C++ -*----------------------------------*\
| =========                 |                                                 |
| \\      /  F ield         | OpenFOAM: The Open Source CFD Toolbox           |
|  \\    /   O peration     | Version:  3.0.1                                 |
|   \\  /    A nd           | Web:      www.OpenFOAM.org                      |
|    \\/     M anipulation  |                                                 |
\*---------------------------------------------------------------------------*/
FoamFile
{
    version     2.0;
    format      ascii;
    class       volScalarField;
    location    "0.2";
    object      p;
}
// * * * * * * * * * * * * * * * * * * * * * * * * * * * * * * * * * * * * * //

dimensions      [0 2 -2 0 0 0 0];

internalField   nonuniform List<scalar> 
125
(
-0.051033241
-0.29307246
-0.52784433
-0.49298631
0.27707905
-0.058515342
-0.17789332
-0.27016104
-0.19579007
0.15341613
-0.040481404
-0.089098818
-0.11121519
-0.055246066
0.090908324
-0.01712091
-0.034234577
-0.034415219
-0.00038549936
0.064061751
0.0017657241
-0.0032622468
0.0014820293
0.021274795
0.052019497
-0.1216619
-0.49131318
-1.4723667
-1.9369263
0.90464985
-0.096421589
-0.25906462
-0.48209138
-0.44498993
0.25872075
-0.055093294
-0.11740264
-0.16319604
-0.10434258
0.10988238
-0.023483251
-0.044548287
-0.048971492
-0.01181017
0.067716804
-0.0011274241
-0.0073361929
-0.0032198855
0.018047452
0.05276238
-0.1155785
-0.3069179
-0.55871874
-0.53625395
0.27570757
-0.085287343
-0.18918113
-0.28121125
-0.20865069
0.14653616
-0.049321945
-0.09368976
-0.11580873
-0.060735038
0.086539652
-0.020043264
-0.03634569
-0.036594268
-0.0028796759
0.061484343
0.00071292986
-0.0043002681
0.00037977133
0.020008447
0.050614142
-0.07622021
-0.13650683
-0.21986624
-0.16827259
0.113845
-0.054182082
-0.10182998
-0.13226002
-0.076244651
0.084184625
-0.031148425
-0.05395446
-0.05998405
-0.018538549
0.066265928
-0.010005862
-0.01934596
-0.015932521
0.01031664
0.053829947
0.0061085679
0.0031578607
0.0081865521
0.02417196
0.047384965
-0.033969911
-0.089284111
-0.070060905
-0.014408573
0.05560652
-0.023263879
-0.049295274
-0.049892742
-0.012976112
0.054460297
-0.011496995
-0.025370407
-0.020455055
0.0088684032
0.051649498
0.001688491
-0.003618586
0.0017963495
0.020809943
0.047116911
0.012829797
0.011325356
0.016078344
0.028060613
0.044113338
)
;

boundaryField
{
    movingWall
    {
        type            zeroGradient;
    }
    CPLReceiveMD
    {
        type            zeroGradient;
    }
    streamwiseIn
    {
        type            cyclic;
    }
    streamwiseOut
    {
        type            cyclic;
    }
    front
    {
        type            cyclic;
    }
    back
    {
        type            cyclic;
    }
    procBoundary1to0
    {
        type            processor;
        value           nonuniform List<scalar> 
25
(
0.39376187
0.058191527
0.0013962027
0.00049582787
0.0096937936
0.065308732
0.0020591338
-0.011432508
-0.0037457075
0.0078563322
0.029745556
-0.0065074673
-0.011448214
-0.002226363
0.009115465
-0.02219878
-0.01172426
-0.0072340788
0.0027902384
0.012694233
0.011199127
0.0018547174
0.0038551462
0.010412677
0.01761734
)
;
    }
    procBoundary1to2
    {
        type            processor;
        value           nonuniform List<scalar> 
25
(
0.73300921
0.38786134
0.1989156
0.11532922
0.077930999
2.3219924
0.6805041
0.25895178
0.1292383
0.081624554
0.75314255
0.3848553
0.19539725
0.1128228
0.076380063
0.31543519
0.20876041
0.13278655
0.089886906
0.06734992
0.13121608
0.11492913
0.088940473
0.070171097
0.058348481
)
;
    }
    procBoundary1to4
    {
        type            processor;
        value           nonuniform List<scalar> 
25
(
0.014948675
0.014106469
0.018823511
0.030390032
0.046213064
0.013598497
0.012372398
0.017059036
0.029264937
0.046359497
0.014580034
0.013607952
0.018214851
0.029663738
0.045430327
0.017450677
0.01701063
0.021311448
0.031010335
0.043914647
0.021179105
0.021141097
0.024854774
0.032475343
0.042244717
)
;
    }
    procBoundary1to10
    {
        type            processor;
        value           nonuniform List<scalar> 
25
(
0.0025634941
-0.013376459
-0.020655774
0.0022299792
0.033414979
0.00077704261
-0.010200654
-0.010649911
0.0084349688
0.039625874
0.0049789095
-0.0010134533
0.002683622
0.018548698
0.041636746
0.01210577
0.0097099985
0.013928695
0.025811644
0.041689776
0.019097791
0.018518562
0.022219574
0.030474395
0.04123342
)
;
    }
    procBoundary1to19throughfront
    {
        type            processorCyclic;
        value           nonuniform List<scalar> 
25
(
-0.030893598
-0.035886288
-0.022987636
-0.0065991076
0.0074979218
-0.13715737
-0.095060035
-0.049841475
-0.016718316
0.0046200897
-0.21701789
-0.12549744
-0.055197743
-0.013226021
0.0097948264
-0.13460752
-0.062340755
-0.012248902
0.013636128
0.026111485
0.13697345
0.10071093
0.073588668
0.058105071
0.04973698
)
;
    }
}


// ************************************************************************* //
