/*--------------------------------*- C++ -*----------------------------------*\
| =========                 |                                                 |
| \\      /  F ield         | OpenFOAM: The Open Source CFD Toolbox           |
|  \\    /   O peration     | Version:  3.0.1                                 |
|   \\  /    A nd           | Web:      www.OpenFOAM.org                      |
|    \\/     M anipulation  |                                                 |
\*---------------------------------------------------------------------------*/
FoamFile
{
    version     2.0;
    format      ascii;
    class       surfaceScalarField;
    location    "0.2";
    object      phi;
}
// * * * * * * * * * * * * * * * * * * * * * * * * * * * * * * * * * * * * * //

dimensions      [0 3 -1 0 0 0 0];

internalField   nonuniform List<scalar> 
300
(
0.98476452
0.023532352
0.10961817
1.169943
-0.24213292
0.37836483
0.41945314
-0.51574652
1.8727477
-1.1927971
-0.5875206
2.8843002
0.22089334
-1.2756797
0.26314395
-0.025425861
0.080420255
0.2092288
-0.18090436
0.15959205
-0.12006056
-0.32175773
0.4168086
-0.6577429
-0.29003655
0.49030866
0.092988206
-0.22328702
0.11297065
-0.041153574
0.03301983
0.063427157
-0.10940077
0.056554053
-0.09128301
-0.15954224
0.10011424
-0.27247142
-0.12363348
0.092414074
0.028998252
-0.045102191
0.045037701
-0.035618852
0.014089573
0.013166248
-0.0631598
0.020345362
-0.055460608
-0.077705464
0.026890635
-0.11972036
-0.054613371
0.019286633
0.007535036
-0.011113751
0.017579068
0.0062481564
-0.0013068893
0.0077839583
-0.032356805
0.0080848681
-0.057498178
0.0044628045
-0.0034580098
0.98751571
0.03328641
0.065367436
2.1959104
-0.44497646
-0.38490189
7.8612431
-1.9726534
-1.8200412
16.541703
-2.990589
-2.805724
1.2688486
1.2180703
0.34698392
-0.048368234
-0.00052870893
0.47263919
-0.27412614
-0.13676625
-0.042393062
-0.6372783
-0.40342817
-1.3678542
-0.69338426
-0.48158544
0.27072768
0.21094042
0.13740995
-0.055867836
-0.0047901789
0.1084563
-0.14332413
-0.04562945
-0.098887916
-0.23280331
-0.096998124
-0.4098188
-0.19711952
-0.093052957
0.062990825
0.039816279
0.051249471
-0.043010044
-0.0047660705
0.019876765
-0.075414701
-0.016131175
-0.06304706
-0.096525534
-0.026549269
-0.15004173
-0.069472594
-0.021416947
0.015200431
0.0086843074
0.019117023
-0.0031221131
-0.00099473513
-0.0063183265
-0.035967639
-0.0084738789
-0.065391255
-0.0059945343
0.0022020354
0.57759151
-0.047604722
-0.0052197728
0.70368893
-0.21864206
-0.29229503
0.09315896
-0.54973275
-0.6598092
-1.226919
-0.67710462
-0.80856955
0.24138484
0.25115475
0.2141441
-0.066738201
-0.040807777
0.20366283
-0.18431343
-0.16064234
-0.11978361
-0.33067868
-0.29917384
-0.68035841
-0.30821695
-0.29001741
0.097837199
0.099550501
0.096636993
-0.057332967
-0.030249536
0.056940573
-0.11372869
-0.076418935
-0.094807682
-0.16232949
-0.11382238
-0.27678447
-0.12549062
-0.09397764
0.031625098
0.030296387
0.039927415
-0.041767065
-0.018501559
0.0093911345
-0.065804074
-0.033612409
-0.057883921
-0.078437736
-0.043256213
-0.11988394
-0.054035445
-0.030803193
0.0086903579
0.010506733
0.015922859
-0.010528293
-0.0031570818
-0.015273052
-0.033473615
-0.017005294
-0.057178473
-0.010655881
0.0039817796
0.89714461
-0.075031635
-0.080866608
0.58780341
-0.023997248
0.041319073
0.43655702
-0.19552293
-0.31313571
0.22049639
-0.16710318
-0.42536089
0.099374522
0.11978809
0.091126577
-0.059614074
-0.0597319
0.068762106
-0.080164686
-0.081821411
-0.10223759
-0.15409802
-0.16966741
-0.29485564
-0.11015077
-0.15441191
0.044266885
0.051914443
0.050356122
-0.046888396
-0.039260885
0.01956955
-0.071173011
-0.054530968
-0.074462053
-0.091839124
-0.082120063
-0.15293911
-0.06147703
-0.064014182
0.012726968
0.0229204
0.024779411
-0.034047756
-0.023850346
-0.00029625008
-0.047573862
-0.032126868
-0.045425101
-0.052180992
-0.037735259
-0.078636142
-0.033793829
-0.025175908
0.0022122228
0.0092897793
0.011155393
-0.013850659
-0.0048993858
-0.017093151
-0.027112432
-0.017352558
-0.042548455
-0.010066533
0.0041069093
0.44809475
-0.038921026
0.88733344
-0.20223234
0.7329745
-0.044872213
0.14921892
0.13028734
0.015853348
0.070859195
-0.035857232
-0.020791732
-0.098862754
-0.088478062
-0.06152761
-0.085465168
0.01160022
0.0051298986
0.036956298
-0.031340773
-0.007457851
-0.054051837
-0.053202215
-0.047434151
-0.066203369
-0.017010842
-0.0011880231
0.017048746
-0.02410855
-0.0063476847
-0.033333005
-0.032818476
-0.031793551
-0.044254846
-0.018309134
-0.0029745442
0.0079194334
-0.0051601607
-0.01982573
-0.028386635
)
;

boundaryField
{
    movingWall
    {
        type            calculated;
        value           nonuniform 0();
    }
    CPLReceiveMD
    {
        type            calculated;
        value           uniform 0;
    }
    streamwiseIn
    {
        type            cyclic;
        value           nonuniform 0();
    }
    streamwiseOut
    {
        type            cyclic;
        value           nonuniform 0();
    }
    front
    {
        type            cyclic;
        value           nonuniform 0();
    }
    back
    {
        type            cyclic;
        value           nonuniform 0();
    }
    procBoundary1to0
    {
        type            processor;
        value           nonuniform List<scalar> 
25
(
-1.0749412
-0.23695487
-0.090118961
-0.042058196
-0.021788491
-0.97656265
-0.18453243
-0.091927282
-0.045405646
-0.023602761
-0.45953975
-0.15465506
-0.080605952
-0.041673525
-0.022295528
-0.74649887
-0.087781378
-0.053950667
-0.032084015
-0.018572706
-0.38946815
-0.071164971
-0.041853909
-0.024813779
-0.014879162
)
;
    }
    procBoundary1to2
    {
        type            processor;
        value           nonuniform List<scalar> 
25
(
-0.47048096
-0.43520637
-0.20877634
-0.10380203
-0.053913643
12.779146
-0.80355925
-0.28692871
-0.12191327
-0.059055671
-0.50136499
-0.42564267
-0.20098807
-0.099013089
-0.052199042
0.25260422
-0.19167378
-0.11400902
-0.067264264
-0.040050216
0.17115404
-0.051491057
-0.053210814
-0.040601914
-0.028099403
)
;
    }
    procBoundary1to4
    {
        type            processor;
        value           nonuniform List<scalar> 
25
(
-0.025780163
-0.036609227
-0.039605407
-0.026316986
0.0010877693
-0.029184253
-0.041246656
-0.044947086
-0.029617158
0.0032508162
-0.028183486
-0.037767466
-0.039620418
-0.025604261
0.0017377705
-0.023517114
-0.029745243
-0.029724055
-0.018937036
-0.00054651409
-0.017423877
-0.021544703
-0.020451729
-0.013099123
-0.00269232
)
;
    }
    procBoundary1to10
    {
        type            processor;
        value           nonuniform List<scalar> 
25
(
-0.10022169
-0.19581861
-0.11396223
0.028075435
0.082131015
-0.062373675
-0.093508258
-0.085331636
-0.038555824
0.02863747
-0.038815787
-0.054877661
-0.050483695
-0.022285868
0.016220005
-0.023230843
-0.029451671
-0.026955372
-0.012477003
0.0074595012
-0.013543463
-0.01577624
-0.013932498
-0.0066792904
0.0035574109
)
;
    }
    procBoundary1to19throughfront
    {
        type            processorCyclic;
        value           nonuniform List<scalar> 
25
(
-0.04289049
-0.057439109
-0.0401804
-0.022761596
-0.011874437
-0.32148899
-0.16684941
-0.07839786
-0.034678204
-0.015416947
-0.60651728
-0.28178491
-0.10771703
-0.039990708
-0.015360253
-0.68476912
-0.25002979
-0.077530142
-0.023910692
-0.0077185624
0.33252798
0.12876006
0.045204559
0.016578151
0.0065615492
)
;
    }
}


// ************************************************************************* //
