/*--------------------------------*- C++ -*----------------------------------*\
| =========                 |                                                 |
| \\      /  F ield         | OpenFOAM: The Open Source CFD Toolbox           |
|  \\    /   O peration     | Version:  3.0.1                                 |
|   \\  /    A nd           | Web:      www.OpenFOAM.org                      |
|    \\/     M anipulation  |                                                 |
\*---------------------------------------------------------------------------*/
FoamFile
{
    version     2.0;
    format      ascii;
    class       volVectorField;
    location    "0.2";
    object      U;
}
// * * * * * * * * * * * * * * * * * * * * * * * * * * * * * * * * * * * * * //

dimensions      [0 1 -1 0 0 0 0];

internalField   nonuniform List<vector> 
125
(
(0.0022189666 2.9929518e-05 0.00013107814)
(0.0030901581 -0.00030828934 0.00088685478)
(0.0021668506 -0.00064343764 0.003098784)
(-0.0011621682 -0.00072627164 0.0044668779)
(-0.0022443527 0.00027485093 -0.002009382)
(0.00062672949 -1.5018725e-06 0.00015570548)
(0.00059230087 -0.00052868659 0.0004079825)
(0.00011148982 -0.0010457382 0.00087348477)
(-0.00097210963 -0.0010922091 0.00092846235)
(-0.0013644189 0.00039067161 -0.00043971914)
(0.00025405457 -8.2938424e-05 8.8746421e-05)
(0.00022079049 -0.00035699939 0.00016828118)
(-3.4725249e-05 -0.00060174708 0.0002598756)
(-0.00045435178 -0.00052057799 0.0002125993)
(-0.00059898487 0.00015204362 -0.00011283227)
(0.00010890514 -9.6167367e-05 4.6034168e-05)
(7.2849375e-05 -0.00021561805 6.8819513e-05)
(-5.2761924e-05 -0.00029657083 8.3624398e-05)
(-0.00021867839 -0.00022288865 5.4011277e-05)
(-0.00027716315 4.5659615e-05 -3.4618293e-05)
(4.9225402e-05 -7.7048346e-05 2.268119e-05)
(2.0386785e-05 -0.00012479127 2.9004166e-05)
(-4.1996153e-05 -0.00014662111 2.931005e-05)
(-0.00011212153 -0.00010113406 1.5223018e-05)
(-0.00013893065 1.0825604e-05 -1.2535589e-05)
(0.0016831411 6.7601597e-05 0.00017145401)
(0.0040821913 -0.00055186176 -1.6451376e-05)
(0.0041625837 -0.0024637266 5.8247227e-05)
(0.028165325 -0.0037393053 0.00014315951)
(0.0663972 0.0015851413 -3.8780467e-05)
(0.00066141963 -7.5294792e-06 8.5842406e-05)
(0.0010312225 -0.00089490266 2.3083929e-05)
(0.000536328 -0.0032620596 1.6734999e-05)
(-0.0017639004 -0.0046063949 1.7543294e-05)
(-0.0027061741 0.0019233732 -1.2426093e-05)
(0.00028348868 -0.00014733913 3.2664856e-05)
(0.00030780345 -0.00052328153 1.2046517e-05)
(1.2133048e-05 -0.0010893573 3.9565464e-06)
(-0.00063587634 -0.0011133414 -4.6247923e-07)
(-0.00086936413 0.00041688614 -6.2662715e-06)
(0.00012073117 -0.00012655151 1.1603553e-05)
(8.8987395e-05 -0.00027477437 5.1829596e-06)
(-5.3873728e-05 -0.0004116679 4.4081663e-07)
(-0.00026619343 -0.00033304947 -2.6343809e-06)
(-0.0003382603 9.7656845e-05 -2.9926526e-06)
(5.340402e-05 -9.1083802e-05 3.9271713e-06)
(2.2686895e-05 -0.00014610776 1.8479959e-06)
(-4.6142208e-05 -0.00017681578 -4.8400884e-07)
(-0.00012655383 -0.00012380947 -1.9122751e-06)
(-0.00015491223 2.3079613e-05 -1.5646155e-06)
(0.0010625061 -5.5768788e-05 0.00012380218)
(0.0018503145 -0.00026871914 -0.00091823969)
(0.00082575204 -0.00068496827 -0.0030866639)
(-0.0017059887 -0.00085197543 -0.0044954542)
(-0.001492099 0.0003012494 0.0018276776)
(0.00045410992 -0.00014037817 -4.5837215e-05)
(0.00052281289 -0.00050015395 -0.0003791459)
(0.0001053131 -0.0011000473 -0.00087571568)
(-0.0010015542 -0.0012359189 -0.00096209772)
(-0.0013830728 0.00042322752 0.00038615104)
(0.00021979322 -0.00015717725 -4.2949078e-05)
(0.00019208208 -0.00037490038 -0.00015241836)
(-4.7234475e-05 -0.00061804129 -0.0002635192)
(-0.00046457472 -0.00054075567 -0.00023381505)
(-0.00059596716 0.00016147711 8.740548e-05)
(0.00010192547 -0.00012490504 -2.8894408e-05)
(6.1686639e-05 -0.00022581657 -6.2017002e-05)
(-6.0579267e-05 -0.00030101139 -8.7269052e-05)
(-0.00022211187 -0.00022433846 -6.5300992e-05)
(-0.00027247529 5.0361276e-05 2.3973719e-05)
(4.7775266e-05 -8.7567324e-05 -1.6995643e-05)
(1.5975604e-05 -0.00012956134 -2.6954442e-05)
(-4.5756424e-05 -0.00014756614 -3.1854847e-05)
(-0.00011320214 -9.9524589e-05 -2.0820077e-05)
(-0.00013572532 1.3048471e-05 7.7289369e-06)
(0.0032337032 -0.00010221806 -0.00013044666)
(0.0015690248 -1.2292695e-05 -0.00027070208)
(0.00065488405 -0.00025125522 -0.0012107741)
(0.0014960142 -0.00020366348 -0.0016222385)
(0.00053906567 0.00014276928 0.00046074274)
(0.00020732693 -0.0001744602 -0.00012636934)
(0.0002016662 -0.00012860565 -0.00029355137)
(-4.6596406e-05 -0.00043739227 -0.0005835707)
(-0.00050944558 -0.00034247303 -0.00056465494)
(-0.00060377145 0.00018224986 0.00018748907)
(0.00012942882 -0.00013039639 -8.6569538e-05)
(8.7233382e-05 -0.00020615262 -0.00016052593)
(-6.9263728e-05 -0.00030091065 -0.00024491694)
(-0.00028495346 -0.00021654409 -0.00019834347)
(-0.00033142506 5.4708548e-05 6.603307e-05)
(7.105252e-05 -0.00010059807 -5.2822729e-05)
(3.061274e-05 -0.00014931046 -8.1410908e-05)
(-5.7157734e-05 -0.00018000356 -0.00010125138)
(-0.00015495068 -0.00012005452 -7.0053509e-05)
(-0.0001810919 1.7980259e-05 2.4694082e-05)
(3.7165237e-05 -7.1805418e-05 -3.0428745e-05)
(7.8276883e-06 -9.6648012e-05 -4.0436093e-05)
(-4.0007846e-05 -0.00010238101 -4.2953478e-05)
(-8.6970054e-05 -6.5991344e-05 -2.5915781e-05)
(-0.00010213121 2.0721384e-06 1.0104911e-05)
(0.00084579334 -5.1661642e-05 -0.00025240173)
(0.00091056211 -0.00029157031 -0.00017619026)
(0.0039714774 -5.7167503e-05 -0.00054846189)
(0.00021397478 0.00020657605 -0.0004770473)
(0.00022996309 2.7799955e-05 0.00029868975)
(0.00018850666 -9.6471214e-05 -0.00015558965)
(6.5612503e-05 -0.00038997748 -0.00021391807)
(-0.00016354148 -0.00013358886 -0.00031900407)
(-0.00023035586 0.00018894365 -0.00023228978)
(-0.00016306994 2.8321743e-05 0.00011022501)
(9.9185723e-05 -8.3630655e-05 -9.8118716e-05)
(3.3734624e-05 -0.00016275995 -0.00013486593)
(-8.5051191e-05 -0.00013572178 -0.00016574968)
(-0.00015362472 -4.6154148e-05 -0.00010546418)
(-0.00014652098 -1.3179379e-06 4.9324401e-05)
(5.2356333e-05 -6.8764245e-05 -5.8997824e-05)
(1.3257982e-05 -0.00010572673 -7.6411568e-05)
(-4.9221875e-05 -9.9047926e-05 -8.0868891e-05)
(-9.6166424e-05 -5.1910813e-05 -4.7057127e-05)
(-0.00010477693 -5.5669076e-06 2.0940708e-05)
(2.8504698e-05 -5.1673431e-05 -3.4288886e-05)
(3.4508693e-06 -6.8277192e-05 -4.1104655e-05)
(-3.1236116e-05 -6.5314202e-05 -3.9112327e-05)
(-6.0143755e-05 -3.9780876e-05 -2.0938893e-05)
(-6.9688274e-05 -7.0910383e-06 9.5784718e-06)
)
;

boundaryField
{
    movingWall
    {
        type            fixedValue;
        value           nonuniform 0();
    }
    CPLReceiveMD
    {
        type            fixedValue;
        value           nonuniform List<vector> 
25
(
(0.33771175 0 0)
(0.26711107 0 0)
(0.40271345 0 0)
(0.49999002 0 0)
(0.53987686 0 0)
(2.1564474 0 0)
(0.35394128 0 0)
(0.70004781 0 0)
(0.56568403 0 0)
(1.2501919 0 0)
(1.1652024 0 0)
(0.63375121 0 0)
(0.25586397 0 0)
(0.68836397 0 0)
(0.22635494 0 0)
(0.034000449 0 0)
(67.645837 0 0)
(0.52099624 0 0)
(0.59879392 0 0)
(0.41088778 0 0)
(0.49006665 0 0)
(153.47926 0 0)
(1.6134328 0 0)
(2.2850937 0 0)
(0.14871276 0 0)
)
;
    }
    streamwiseIn
    {
        type            cyclic;
    }
    streamwiseOut
    {
        type            cyclic;
    }
    front
    {
        type            cyclic;
    }
    back
    {
        type            cyclic;
    }
    procBoundary1to0
    {
        type            processor;
        value           nonuniform List<vector> 
25
(
(0.00052664234 0.00084935126 0.00013645283)
(0.0001077804 0.0010014532 9.2592651e-05)
(0.00010071197 0.0001606493 5.5369551e-05)
(7.3305342e-05 -1.0788973e-05 3.0297963e-05)
(4.9043637e-05 -3.96118e-05 1.5846517e-05)
(0.0033338153 0.0001588438 0.00097191282)
(0.00019566184 0.0001936115 0.00019561178)
(0.00013702446 1.728333e-05 4.6307817e-05)
(8.8632632e-05 -4.4689818e-05 1.2162623e-05)
(5.524879e-05 -5.0413618e-05 3.2981305e-06)
(0.0014406371 7.2531637e-05 0.00039158476)
(0.00029207827 7.5329748e-05 7.6344218e-05)
(0.0001569507 -2.2799961e-05 1.6419565e-06)
(9.1470148e-05 -5.3798663e-05 -1.2338359e-05)
(5.5247716e-05 -5.0891607e-05 -1.0715661e-05)
(0.00072299018 -0.00015667977 2.0900712e-05)
(0.00020746881 -0.00019661395 -2.7928026e-05)
(0.00012721438 -7.1399325e-05 -3.9918453e-05)
(7.8393992e-05 -5.7047438e-05 -3.1841775e-05)
(4.8959855e-05 -4.5201266e-05 -2.1165525e-05)
(0.0011899991 2.3704894e-05 -0.00034269584)
(0.00015280376 1.4513504e-05 -0.0001166214)
(9.7310362e-05 -2.6713731e-05 -6.6587006e-05)
(6.2377056e-05 -3.5045735e-05 -4.1108697e-05)
(4.0428564e-05 -3.2033577e-05 -2.5363777e-05)
)
;
    }
    procBoundary1to2
    {
        type            processor;
        value           nonuniform List<vector> 
25
(
(0.00097485116 0.00075171109 -0.0050614464)
(-0.00039059793 0.0011514402 -0.0011801809)
(-0.00028681349 0.00056691471 -0.00031004543)
(-0.00017854325 0.00023716571 -9.2417821e-05)
(-0.00010653278 0.00010118516 -3.1255448e-05)
(0.0011410634 0.0040171585 -7.460487e-05)
(-0.00041934472 0.0050061168 -1.454877e-06)
(-0.00031732289 0.0012738186 2.555171e-06)
(-0.00019039756 0.00038140735 2.0534909e-06)
(-0.00011077013 0.00013470747 1.2930601e-06)
(0.00029513788 0.00082490928 0.0049681644)
(-0.00028925863 0.0012286497 0.0011590585)
(-0.00024594865 0.00057042309 0.00030412865)
(-0.00016238345 0.0002359036 9.1867428e-05)
(-9.9625182e-05 9.9886192e-05 3.1960951e-05)
(0.0010729095 0.00020559793 0.0015620652)
(-0.0001707976 0.00033962406 0.00065589517)
(-0.00016598222 0.00020662639 0.00025110291)
(-0.0001222031 0.00010923947 9.7644859e-05)
(-8.0795832e-05 5.5431755e-05 4.0121272e-05)
(0.0011188042 -8.2048395e-05 0.0005968982)
(-7.4889356e-07 -8.3100309e-05 0.00031727407)
(-8.2831517e-05 1.2172528e-05 0.00015469692)
(-8.1904907e-05 2.4921898e-05 7.2797185e-05)
(-6.1017597e-05 1.9814787e-05 3.4624901e-05)
)
;
    }
    procBoundary1to4
    {
        type            processor;
        value           nonuniform List<vector> 
25
(
(2.3725663e-05 -5.4278625e-05 1.1136258e-05)
(3.2765981e-06 -7.2810475e-05 1.266844e-05)
(-2.910474e-05 -7.6064346e-05 1.1065673e-05)
(-6.1231704e-05 -5.0023783e-05 4.7150929e-06)
(-7.4843959e-05 6.9704517e-07 -4.9966267e-06)
(2.5037017e-05 -6.0470504e-05 1.0845726e-06)
(3.2554019e-06 -8.087278e-05 4.1289072e-07)
(-3.1575457e-05 -8.4891747e-05 -5.0420963e-07)
(-6.6298065e-05 -5.5174319e-05 -1.0249049e-06)
(-7.9743407e-05 4.355708e-06 -7.6978547e-07)
(2.3255738e-05 -5.79821e-05 -9.6160253e-06)
(1.6878158e-06 -7.4697229e-05 -1.2557251e-05)
(-3.0542536e-05 -7.597533e-05 -1.2834287e-05)
(-6.149728e-05 -4.8644228e-05 -7.4828641e-06)
(-7.3064534e-05 1.9630953e-06 2.9662512e-06)
(1.9605773e-05 -4.8842623e-05 -1.6928838e-05)
(3.7139899e-08 -6.007612e-05 -2.0126765e-05)
(-2.6501072e-05 -5.8695923e-05 -1.8999443e-05)
(-5.0497529e-05 -3.7362934e-05 -1.0309789e-05)
(-5.966881e-05 -2.0291291e-06 4.554578e-06)
(1.6112718e-05 -3.6873764e-05 -1.9420046e-05)
(-3.8278956e-07 -4.4461323e-05 -2.1692374e-05)
(-2.0725561e-05 -4.1863839e-05 -1.9100475e-05)
(-3.7943261e-05 -2.7135198e-05 -9.5745624e-06)
(-4.5181277e-05 -5.9484615e-06 4.6485505e-06)
)
;
    }
    procBoundary1to10
    {
        type            processor;
        value           nonuniform List<vector> 
25
(
(0.00086790097 -5.252038e-06 -0.00021458538)
(0.00037035504 -4.9997534e-05 -0.00045956571)
(0.00056051251 -2.149808e-05 -0.00019861972)
(0.00028012817 4.1356734e-05 0.00011269913)
(0.00028309202 -4.5893153e-05 8.3063848e-05)
(0.0001087721 -2.0023143e-05 -0.00013287157)
(3.7842565e-05 -8.725724e-05 -0.00020307501)
(-6.4816579e-05 -5.4379295e-05 -0.00016441559)
(-8.1211472e-05 2.9372272e-05 -5.0950737e-05)
(-5.4629985e-05 -6.7314674e-05 5.2758997e-05)
(6.1149409e-05 -3.3804503e-05 -8.4135279e-05)
(1.9602266e-05 -6.8646199e-05 -0.00011577087)
(-3.9861868e-05 -6.2775409e-05 -0.00010064725)
(-6.9879734e-05 -3.1311715e-05 -3.8928526e-05)
(-7.1264056e-05 -3.4575916e-05 3.0946514e-05)
(3.5749646e-05 -3.6768234e-05 -5.1093173e-05)
(8.7416722e-06 -5.5549168e-05 -6.349516e-05)
(-2.7803292e-05 -5.336621e-05 -5.5674478e-05)
(-5.3141079e-05 -3.552927e-05 -2.4252583e-05)
(-6.1237588e-05 -2.1765691e-05 1.5404858e-05)
(2.1424358e-05 -3.2227639e-05 -3.0217116e-05)
(3.0042465e-06 -4.1928816e-05 -3.4689695e-05)
(-1.9842085e-05 -4.06126e-05 -2.973066e-05)
(-3.8279257e-05 -2.8508784e-05 -1.3593525e-05)
(-4.6567416e-05 -1.4220023e-05 7.701454e-06)
)
;
    }
    procBoundary1to19throughfront
    {
        type            processorCyclic;
        value           nonuniform List<vector> 
25
(
(0.0014645732 4.299319e-05 0.00019683407)
(0.00034631033 3.4820714e-05 0.00014420113)
(0.0001705771 -3.7667805e-05 9.6930797e-05)
(8.2209619e-05 -6.0486279e-05 5.6572781e-05)
(4.0246369e-05 -5.6185893e-05 3.0934399e-05)
(0.00087457561 -7.253976e-05 0.00059544192)
(0.00031335271 -0.0001758784 0.00033748274)
(0.00013667418 -0.00018411833 0.00017032427)
(5.1397156e-05 -0.00013549735 8.1295878e-05)
(1.6058032e-05 -8.995669e-05 3.8636803e-05)
(0.00046129522 -0.00023689067 0.0010387376)
(1.5794904e-05 -0.00042161369 0.00052145028)
(-3.218514e-05 -0.00029949678 0.00021899624)
(-3.9065505e-05 -0.00018110235 8.9066392e-05)
(-3.2361062e-05 -0.00010425705 3.706089e-05)
(0.00033422857 -0.00019868002 0.0010898397)
(-0.00045887777 -0.00034991054 0.00043018742)
(-0.00026317049 -0.00023889086 0.00014567224)
(-0.00014795073 -0.0001356732 4.9068613e-05)
(-8.4708193e-05 -7.451328e-05 1.7333796e-05)
(-0.00068259454 1.4423351e-05 -0.00056626662)
(-0.00061669677 2.5759761e-05 -0.00025573279)
(-0.00034672407 1.1784819e-05 -0.00010201794)
(-0.00019183119 -2.6398989e-06 -4.115748e-05)
(-0.00010843376 -6.5420624e-06 -1.7210836e-05)
)
;
    }
}


// ************************************************************************* //
