# Coordinates of a bcc lattice for 497 spheres of diameter 0.001745
1 atom types
497 atoms
#porosity is xxx
0.0 0.00642417 xlo xhi
0.0 0.006425477 ylo yhi
0.0 0.00643618 zlo zhi

Atoms

1 1 0.001745 30000000000 0.001539 0.000186 0.004332
2 1 0.001718 30000000000 0.001189 0.003161 0.002317
3 1 0.001718 30000000000 0.003304 0.000399 0.003496
4 1 0.001664 30000000000 0.000452 0.005887 0.005426
5 1 0.001663 30000000000 0.004088 0.005393 0.003998
6 1 0.001656 30000000000 0.005176 0.004252 0.004514
7 1 0.001613 30000000000 0.001045 0.003146 0.000658
8 1 0.001609 30000000000 0.000665 0.001590 0.004629
9 1 0.001586 30000000000 0.002953 0.002735 0.004016
10 1 0.001573 30000000000 0.006014 0.003304 0.006296
11 1 0.001573 30000000000 0.006288 0.005636 0.000477
12 1 0.001570 30000000000 0.005362 0.000483 0.000179
13 1 0.001549 30000000000 0.005915 0.000892 0.002589
14 1 0.001531 30000000000 0.002809 0.000448 0.000270
15 1 0.001528 30000000000 0.005414 0.006054 0.001821
16 1 0.001524 30000000000 0.006162 0.002790 0.001449
17 1 0.001524 30000000000 0.002209 0.001608 0.005914
18 1 0.001490 30000000000 0.002456 0.002130 0.002651
19 1 0.001472 30000000000 0.003009 0.004259 0.003910
20 1 0.001465 30000000000 0.004303 0.003837 0.001574
21 1 0.001464 30000000000 0.001194 0.004597 0.005908
22 1 0.001454 30000000000 0.003664 0.003500 0.002845
23 1 0.001453 30000000000 0.004800 0.000036 0.003116
24 1 0.001449 30000000000 0.006282 0.003974 0.003461
25 1 0.001446 30000000000 0.003017 0.004435 0.000807
26 1 0.001433 30000000000 0.000678 0.000180 0.002008
27 1 0.001433 30000000000 0.001800 0.004738 0.002288
28 1 0.001429 30000000000 0.005068 0.001777 0.000875
29 1 0.001428 30000000000 0.004011 0.001667 0.004112
30 1 0.001418 30000000000 0.003030 0.004146 0.005840
31 1 0.001410 30000000000 0.000474 0.003612 0.005119
32 1 0.001379 30000000000 0.001988 0.004798 0.004747
33 1 0.001356 30000000000 0.005942 0.000293 0.003912
34 1 0.001356 30000000000 0.005510 0.005313 0.003499
35 1 0.001351 30000000000 0.004791 0.006091 0.005526
36 1 0.001310 30000000000 0.000872 0.005250 0.004150
37 1 0.001303 30000000000 0.006130 0.002035 0.005630
38 1 0.001265 30000000000 0.004406 0.001359 0.002857
39 1 0.001258 30000000000 0.001985 0.000891 0.003014
40 1 0.001256 30000000000 0.004782 0.000577 0.004461
41 1 0.001255 30000000000 0.001160 0.001838 0.002994
42 1 0.001251 30000000000 0.003546 0.006361 0.001507
43 1 0.001247 30000000000 0.000036 0.002674 0.003825
44 1 0.001242 30000000000 0.001267 0.002857 0.004372
45 1 0.001239 30000000000 0.003783 0.005733 0.002620
46 1 0.001232 30000000000 0.005631 0.005111 0.005582
47 1 0.001225 30000000000 0.004446 0.003028 0.003824
48 1 0.001212 30000000000 0.003655 0.002637 0.005222
49 1 0.001212 30000000000 0.001115 0.001756 0.000896
50 1 0.001199 30000000000 0.002425 0.005581 0.000515
51 1 0.001197 30000000000 0.000320 0.004329 0.000438
52 1 0.001191 30000000000 0.005085 0.003000 0.002247
53 1 0.001184 30000000000 0.002699 0.005673 0.004138
54 1 0.001176 30000000000 0.000839 0.004305 0.001504
55 1 0.001171 30000000000 0.003350 0.002202 0.006316
56 1 0.001170 30000000000 0.002402 0.006070 0.005700
57 1 0.001170 30000000000 0.000111 0.000789 0.005785
58 1 0.001148 30000000000 0.001615 0.005962 0.002650
59 1 0.001141 30000000000 0.004702 0.004662 0.006349
60 1 0.001141 30000000000 0.006301 0.003902 0.002169
61 1 0.001138 30000000000 0.001110 0.004239 0.003250
62 1 0.001135 30000000000 0.003748 0.001071 0.001813
63 1 0.001130 30000000000 0.003517 0.004804 0.001935
64 1 0.001118 30000000000 0.000716 0.000308 0.000541
65 1 0.001113 30000000000 0.005206 0.004130 0.002445
66 1 0.001111 30000000000 0.002767 0.000789 0.004745
67 1 0.001111 30000000000 0.001984 0.000351 0.001960
68 1 0.001110 30000000000 0.004508 0.003408 0.005383
69 1 0.001108 30000000000 0.006329 0.005464 0.002563
70 1 0.001107 30000000000 0.005581 0.001433 0.004734
71 1 0.001104 30000000000 0.006061 0.001530 0.003743
72 1 0.001089 30000000000 0.003425 0.000335 0.005555
73 1 0.001089 30000000000 0.003770 0.001162 0.006174
74 1 0.001086 30000000000 0.001618 0.001385 0.002017
75 1 0.001086 30000000000 0.002092 0.003823 0.001473
76 1 0.001086 30000000000 0.001091 0.005788 0.000966
77 1 0.001084 30000000000 0.004603 0.005188 0.001279
78 1 0.001081 30000000000 0.004735 0.003610 0.000375
79 1 0.001080 30000000000 0.000775 0.005357 0.001908
80 1 0.001078 30000000000 0.001968 0.003608 0.003567
81 1 0.001074 30000000000 0.002424 0.003658 0.004867
82 1 0.001066 30000000000 0.003675 0.002252 0.003015
83 1 0.001065 30000000000 0.002699 0.006096 0.002476
84 1 0.001062 30000000000 0.001899 0.003552 0.005990
85 1 0.001062 30000000000 0.003317 0.005809 0.005065
86 1 0.001059 30000000000 0.003330 0.001550 0.005274
87 1 0.001057 30000000000 0.002605 0.002881 0.005574
88 1 0.001057 30000000000 0.004444 0.002003 0.006261
89 1 0.001056 30000000000 0.001823 0.004748 0.001006
90 1 0.001043 30000000000 0.004773 0.000734 0.001959
91 1 0.001040 30000000000 0.003800 0.003558 0.004588
92 1 0.001020 30000000000 0.003284 0.005771 0.006275
93 1 0.001019 30000000000 0.003273 0.001496 0.000828
94 1 0.001016 30000000000 0.006324 0.002918 0.002702
95 1 0.001011 30000000000 0.001594 0.000916 0.000344
96 1 0.001007 30000000000 0.003096 0.003610 0.001710
97 1 0.001005 30000000000 0.001875 0.002279 0.001539
98 1 0.001001 30000000000 0.004354 0.002340 0.001682
99 1 0.000999 30000000000 0.000109 0.000960 0.001198
100 1 0.000995 30000000000 0.001709 0.000452 0.005898
101 1 0.000994 30000000000 0.001665 0.006341 0.000298
102 1 0.000993 30000000000 0.001292 0.003968 0.004263
103 1 0.000975 30000000000 0.005034 0.002255 0.004340
104 1 0.000969 30000000000 0.004342 0.001792 0.005275
105 1 0.000969 30000000000 0.002043 0.002214 0.000554
106 1 0.000962 30000000000 0.000128 0.005819 0.003509
107 1 0.000960 30000000000 0.004653 0.005870 0.000311
108 1 0.000956 30000000000 0.005589 0.000784 0.001384
109 1 0.000950 30000000000 0.000416 0.000919 0.003470
110 1 0.000939 30000000000 0.006244 0.004548 0.001356
111 1 0.000937 30000000000 0.005761 0.003846 0.000963
112 1 0.000935 30000000000 0.003823 0.002301 0.000873
113 1 0.000934 30000000000 0.000081 0.001934 0.002261
114 1 0.000929 30000000000 0.001945 0.001394 0.004736
115 1 0.000924 30000000000 0.004636 0.004776 0.003002
116 1 0.000922 30000000000 0.005178 0.001065 0.003572
117 1 0.000920 30000000000 0.001814 0.005544 0.003584
118 1 0.000920 30000000000 0.005351 0.000663 0.005383
119 1 0.000912 30000000000 0.001053 0.000345 0.003107
120 1 0.000909 30000000000 0.002178 0.003673 0.000491
121 1 0.000905 30000000000 0.005522 0.002803 0.005123
122 1 0.000900 30000000000 0.001656 0.001456 0.003871
123 1 0.000900 30000000000 0.002456 0.003780 0.002396
124 1 0.000897 30000000000 0.005964 0.001605 0.001596
125 1 0.000896 30000000000 0.002514 0.005906 0.001532
126 1 0.000895 30000000000 0.003890 0.006366 0.000486
127 1 0.000894 30000000000 0.005707 0.004897 0.002022
128 1 0.000885 30000000000 0.001059 0.001123 0.005998
129 1 0.000884 30000000000 0.005613 0.002108 0.002274
130 1 0.000878 30000000000 0.004508 0.004014 0.003464
131 1 0.000873 30000000000 0.001721 0.002680 0.003396
132 1 0.000871 30000000000 0.004690 0.001142 0.005838
133 1 0.000867 30000000000 0.004021 0.004255 0.005201
134 1 0.000866 30000000000 0.001527 0.005702 0.006067
135 1 0.000866 30000000000 0.005190 0.004020 0.005753
136 1 0.000863 30000000000 0.004703 0.002859 0.000991
137 1 0.000862 30000000000 0.005979 0.003282 0.004539
138 1 0.000858 30000000000 0.000524 0.002547 0.006117
139 1 0.000853 30000000000 0.004052 0.000942 0.005129
140 1 0.000850 30000000000 0.005023 0.002703 0.000212
141 1 0.000850 30000000000 0.002927 0.002441 0.000766
142 1 0.000849 30000000000 0.002208 0.002974 0.001023
143 1 0.000846 30000000000 0.005140 0.005492 0.004674
144 1 0.000844 30000000000 0.003869 0.003987 0.000188
145 1 0.000842 30000000000 0.003250 0.004883 0.004854
146 1 0.000840 30000000000 0.002788 0.002118 0.001534
147 1 0.000840 30000000000 0.003022 0.000522 0.002196
148 1 0.000838 30000000000 0.004145 0.005451 0.006135
149 1 0.000838 30000000000 0.003229 0.002721 0.001917
150 1 0.000838 30000000000 0.001148 0.005217 0.003112
151 1 0.000836 30000000000 0.006055 0.000303 0.005002
152 1 0.000835 30000000000 0.005120 0.002508 0.005835
153 1 0.000832 30000000000 0.001185 0.002942 0.005769
154 1 0.000829 30000000000 0.002748 0.005164 0.005459
155 1 0.000828 30000000000 0.000981 0.001940 0.005753
156 1 0.000825 30000000000 0.006304 0.005047 0.004690
157 1 0.000825 30000000000 0.004139 0.004575 0.000714
158 1 0.000823 30000000000 0.005072 0.003464 0.003141
159 1 0.000820 30000000000 0.002363 0.002987 0.001843
160 1 0.000818 30000000000 0.005868 0.001564 0.000116
161 1 0.000818 30000000000 0.005539 0.005045 0.001196
162 1 0.000817 30000000000 0.002168 0.004427 0.000058
163 1 0.000816 30000000000 0.003541 0.005126 0.005674
164 1 0.000813 30000000000 0.004524 0.004800 0.002141
165 1 0.000811 30000000000 0.005073 0.002252 0.002911
166 1 0.000808 30000000000 0.005911 0.004489 0.006340
167 1 0.000806 30000000000 0.000122 0.002400 0.000420
168 1 0.000802 30000000000 0.004929 0.004414 0.000824
169 1 0.000802 30000000000 0.003903 0.003282 0.000670
170 1 0.000800 30000000000 0.001347 0.002174 0.000011
171 1 0.000798 30000000000 0.004259 0.000626 0.001123
172 1 0.000798 30000000000 0.005316 0.004340 0.001520
173 1 0.000795 30000000000 0.000985 0.005968 0.003389
174 1 0.000794 30000000000 0.006060 0.002099 0.002984
175 1 0.000792 30000000000 0.005973 0.004162 0.005482
176 1 0.000791 30000000000 0.005526 0.002364 0.003562
177 1 0.000791 30000000000 0.003396 0.001432 0.002684
178 1 0.000787 30000000000 0.001915 0.000396 0.001005
179 1 0.000783 30000000000 0.006171 0.001820 0.000811
180 1 0.000783 30000000000 0.005101 0.006094 0.004127
181 1 0.000781 30000000000 0.005774 0.006042 0.005936
182 1 0.000780 30000000000 0.006315 0.005362 0.001621
183 1 0.000778 30000000000 0.000109 0.004716 0.005382
184 1 0.000777 30000000000 0.000229 0.000158 0.003107
185 1 0.000775 30000000000 0.000231 0.001720 0.000034
186 1 0.000772 30000000000 0.000107 0.002615 0.004869
187 1 0.000772 30000000000 0.000366 0.000441 0.004707
188 1 0.000768 30000000000 0.003387 0.002969 0.001170
189 1 0.000767 30000000000 0.002506 0.001124 0.002064
190 1 0.000766 30000000000 0.003144 0.005412 0.001310
191 1 0.000766 30000000000 0.004274 0.000275 0.006246
192 1 0.000765 30000000000 0.006137 0.000175 0.001120
193 1 0.000762 30000000000 0.004354 0.006375 0.002107
194 1 0.000762 30000000000 0.002740 0.001698 0.004523
195 1 0.000761 30000000000 0.003355 0.003123 0.006026
196 1 0.000761 30000000000 0.004730 0.002545 0.005099
197 1 0.000760 30000000000 0.001412 0.002312 0.005199
198 1 0.000759 30000000000 0.002675 0.003276 0.006389
199 1 0.000758 30000000000 0.001791 0.005504 0.001505
200 1 0.000751 30000000000 0.004938 0.001866 0.003576
201 1 0.000742 30000000000 0.002344 0.005395 0.002962
202 1 0.000740 30000000000 0.005452 0.004839 0.000451
203 1 0.000738 30000000000 0.003646 0.000431 0.004674
204 1 0.000736 30000000000 0.002973 0.005169 0.002646
205 1 0.000735 30000000000 0.005218 0.001502 0.001911
206 1 0.000733 30000000000 0.003567 0.001976 0.001629
207 1 0.000731 30000000000 0.000923 0.005954 0.000089
208 1 0.000730 30000000000 0.000315 0.001812 0.001446
209 1 0.000729 30000000000 0.003340 0.005812 0.000710
210 1 0.000729 30000000000 0.000830 0.001177 0.001620
211 1 0.000728 30000000000 0.003763 0.005215 0.000941
212 1 0.000728 30000000000 0.002552 0.000578 0.005614
213 1 0.000728 30000000000 0.002298 0.001405 0.000582
214 1 0.000727 30000000000 0.006380 0.005730 0.004330
215 1 0.000725 30000000000 0.000691 0.002526 0.005331
216 1 0.000724 30000000000 0.006419 0.001043 0.000253
217 1 0.000721 30000000000 0.002487 0.005100 0.001478
218 1 0.000719 30000000000 0.001391 0.000960 0.005286
219 1 0.000719 30000000000 0.005272 0.005390 0.000009
220 1 0.000718 30000000000 0.002707 0.004371 0.001841
221 1 0.000715 30000000000 0.002135 0.002812 0.004822
222 1 0.000715 30000000000 0.000173 0.004220 0.005936
223 1 0.000713 30000000000 0.005266 0.004321 0.003335
224 1 0.000713 30000000000 0.002364 0.001049 0.003968
225 1 0.000712 30000000000 0.002858 0.003352 0.000805
226 1 0.000710 30000000000 0.004248 0.002717 0.000305
227 1 0.000709 30000000000 0.001542 0.004165 0.000406
228 1 0.000706 30000000000 0.004944 0.003101 0.004648
229 1 0.000704 30000000000 0.002814 0.002222 0.005030
230 1 0.000704 30000000000 0.005670 0.003088 0.003429
231 1 0.000703 30000000000 0.003028 0.000819 0.001300
232 1 0.000701 30000000000 0.000695 0.001173 0.000264
233 1 0.000699 30000000000 0.003036 0.005556 0.003247
234 1 0.000699 30000000000 0.005895 0.004699 0.002770
235 1 0.000697 30000000000 0.002495 0.002570 0.006388
236 1 0.000696 30000000000 0.005876 0.005660 0.004828
237 1 0.000693 30000000000 0.002638 0.000243 0.001349
238 1 0.000692 30000000000 0.002515 0.003144 0.003048
239 1 0.000691 30000000000 0.004747 0.005098 0.005204
240 1 0.000687 30000000000 0.002743 0.005088 0.006213
241 1 0.000686 30000000000 0.000050 0.005009 0.003638
242 1 0.000684 30000000000 0.005446 0.006347 0.004723
243 1 0.000682 30000000000 0.005500 0.002887 0.004080
244 1 0.000681 30000000000 0.000588 0.003439 0.004022
245 1 0.000679 30000000000 0.002304 0.004260 0.003083
246 1 0.000678 30000000000 0.000373 0.006292 0.004265
247 1 0.000678 30000000000 0.000215 0.001632 0.002996
248 1 0.000677 30000000000 0.000146 0.004764 0.002064
249 1 0.000677 30000000000 0.003292 0.002990 0.000374
250 1 0.000676 30000000000 0.001116 0.003401 0.003598
251 1 0.000676 30000000000 0.005376 0.003163 0.000776
252 1 0.000674 30000000000 0.001764 0.001083 0.001203
253 1 0.000673 30000000000 0.004723 0.005577 0.002532
254 1 0.000673 30000000000 0.004238 0.004876 0.005600
255 1 0.000672 30000000000 0.002009 0.004821 0.003316
256 1 0.000671 30000000000 0.004842 0.001984 0.002260
257 1 0.000669 30000000000 0.003369 0.004962 0.003187
258 1 0.000669 30000000000 0.005225 0.005610 0.000830
259 1 0.000667 30000000000 0.004488 0.001176 0.000243
260 1 0.000662 30000000000 0.002473 0.005995 0.003303
261 1 0.000661 30000000000 0.002233 0.004813 0.005868
262 1 0.000661 30000000000 0.004325 0.003138 0.006206
263 1 0.000661 30000000000 0.005227 0.002058 0.005247
264 1 0.000660 30000000000 0.001149 0.000844 0.001102
265 1 0.000659 30000000000 0.000707 0.001443 0.002249
266 1 0.000658 30000000000 0.000964 0.002763 0.003475
267 1 0.000658 30000000000 0.003891 0.003586 0.005990
268 1 0.000657 30000000000 0.005409 0.004155 0.000319
269 1 0.000656 30000000000 0.005437 0.001301 0.005864
270 1 0.000655 30000000000 0.000586 0.000968 0.002687
271 1 0.000655 30000000000 0.005198 0.005115 0.002564
272 1 0.000653 30000000000 0.005326 0.001873 0.006163
273 1 0.000652 30000000000 0.004114 0.001249 0.000781
274 1 0.000651 30000000000 0.004412 0.006031 0.001212
275 1 0.000651 30000000000 0.000488 0.004875 0.003151
276 1 0.000651 30000000000 0.005698 0.003466 0.002752
277 1 0.000651 30000000000 0.001722 0.003101 0.005284
278 1 0.000651 30000000000 0.003877 0.004419 0.003317
279 1 0.000651 30000000000 0.004080 0.004247 0.004153
280 1 0.000649 30000000000 0.000653 0.005028 0.000976
281 1 0.000648 30000000000 0.004101 0.005474 0.005150
282 1 0.000646 30000000000 0.000207 0.004541 0.004270
283 1 0.000645 30000000000 0.003724 0.004985 0.000268
284 1 0.000645 30000000000 0.003904 0.005593 0.000385
285 1 0.000643 30000000000 0.004101 0.001676 0.001267
286 1 0.000641 30000000000 0.002190 0.002137 0.004792
287 1 0.000639 30000000000 0.003177 0.001770 0.003511
288 1 0.000639 30000000000 0.003881 0.004818 0.002805
289 1 0.000638 30000000000 0.004359 0.002349 0.002509
290 1 0.000637 30000000000 0.003971 0.006349 0.005028
291 1 0.000636 30000000000 0.003339 0.004488 0.002739
292 1 0.000636 30000000000 0.000699 0.004841 0.005015
293 1 0.000632 30000000000 0.003944 0.001846 0.002187
294 1 0.000631 30000000000 0.003954 0.005539 0.001719
295 1 0.000630 30000000000 0.004059 0.004205 0.005946
296 1 0.000629 30000000000 0.002611 0.005345 0.002095
297 1 0.000629 30000000000 0.004385 0.000831 0.003644
298 1 0.000628 30000000000 0.002040 0.000790 0.005222
299 1 0.000627 30000000000 0.000855 0.000380 0.006093
300 1 0.000626 30000000000 0.000419 0.001858 0.003573
301 1 0.000625 30000000000 0.004150 0.000533 0.002476
302 1 0.000624 30000000000 0.000876 0.004302 0.002403
303 1 0.000623 30000000000 0.005200 0.003291 0.001393
304 1 0.000623 30000000000 0.001758 0.003983 0.005280
305 1 0.000623 30000000000 0.001549 0.006220 0.005454
306 1 0.000623 30000000000 0.002317 0.001559 0.001556
307 1 0.000622 30000000000 0.004503 0.002811 0.002928
308 1 0.000621 30000000000 0.004564 0.000071 0.000805
309 1 0.000620 30000000000 0.002097 0.002113 0.003703
310 1 0.000618 30000000000 0.004469 0.002276 0.003293
311 1 0.000617 30000000000 0.000565 0.003234 0.003301
312 1 0.000615 30000000000 0.002915 0.001404 0.001583
313 1 0.000615 30000000000 0.000007 0.006036 0.001485
314 1 0.000615 30000000000 0.001767 0.005031 0.000222
315 1 0.000615 30000000000 0.004950 0.003167 0.006083
316 1 0.000614 30000000000 0.001862 0.002601 0.006220
317 1 0.000613 30000000000 0.003638 0.000195 0.002398
318 1 0.000613 30000000000 0.006252 0.004351 0.004861
319 1 0.000611 30000000000 0.003014 0.006414 0.004546
320 1 0.000609 30000000000 0.002831 0.003126 0.002365
321 1 0.000609 30000000000 0.002120 0.005768 0.004912
322 1 0.000606 30000000000 0.001069 0.003583 0.006074
323 1 0.000606 30000000000 0.002640 0.004807 0.003107
324 1 0.000606 30000000000 0.000279 0.004534 0.002663
325 1 0.000605 30000000000 0.002715 0.001388 0.003344
326 1 0.000604 30000000000 0.005540 0.003627 0.001779
327 1 0.000604 30000000000 0.002051 0.002976 0.000225
328 1 0.000603 30000000000 0.005462 0.001691 0.003156
329 1 0.000602 30000000000 0.006233 0.000891 0.004630
330 1 0.000601 30000000000 0.005741 0.006132 0.005252
331 1 0.000601 30000000000 0.000780 0.004875 0.002597
332 1 0.000601 30000000000 0.004424 0.002619 0.005703
333 1 0.000601 30000000000 0.004061 0.004354 0.002435
334 1 0.000601 30000000000 0.004196 0.002979 0.002138
335 1 0.000600 30000000000 0.000650 0.002319 0.001726
336 1 0.000600 30000000000 0.002521 0.006214 0.004835
337 1 0.000600 30000000000 0.003184 0.003402 0.005106
338 1 0.000600 30000000000 0.001593 0.003556 0.004874
339 1 0.000600 30000000000 0.002012 0.006425 0.003276
340 1 0.000600 30000000000 0.003251 0.003616 0.000238
341 1 0.000599 30000000000 0.004855 0.001218 0.005126
342 1 0.000599 30000000000 0.001189 0.000881 0.002537
343 1 0.000598 30000000000 0.004311 0.000555 0.000431
344 1 0.000596 30000000000 0.005905 0.003512 0.005227
345 1 0.000596 30000000000 0.006079 0.004763 0.004078
346 1 0.000595 30000000000 0.005807 0.002172 0.004238
347 1 0.000595 30000000000 0.002828 0.001036 0.002657
348 1 0.000594 30000000000 0.006423 0.000298 0.000073
349 1 0.000593 30000000000 0.003907 0.003761 0.003804
350 1 0.000591 30000000000 0.004504 0.001535 0.001933
351 1 0.000591 30000000000 0.003965 0.006135 0.006034
352 1 0.000590 30000000000 0.005888 0.001194 0.000798
353 1 0.000590 30000000000 0.005874 0.002229 0.000347
354 1 0.000589 30000000000 0.003779 0.000810 0.000499
355 1 0.000588 30000000000 0.001579 0.004743 0.003770
356 1 0.000588 30000000000 0.003830 0.002524 0.002250
357 1 0.000586 30000000000 0.002766 0.004555 0.002516
358 1 0.000586 30000000000 0.000724 0.004414 0.004580
359 1 0.000584 30000000000 0.003864 0.004739 0.006159
360 1 0.000584 30000000000 0.002638 0.001707 0.003842
361 1 0.000582 30000000000 0.002718 0.001869 0.000388
362 1 0.000582 30000000000 0.000571 0.006057 0.002846
363 1 0.000581 30000000000 0.002343 0.000807 0.001345
364 1 0.000581 30000000000 0.001431 0.002158 0.003810
365 1 0.000579 30000000000 0.003409 0.002121 0.002249
366 1 0.000577 30000000000 0.003672 0.003510 0.005417
367 1 0.000577 30000000000 0.004972 0.000322 0.001165
368 1 0.000576 30000000000 0.000852 0.002229 0.003762
369 1 0.000576 30000000000 0.001991 0.005307 0.005581
370 1 0.000575 30000000000 0.003156 0.001632 0.002077
371 1 0.000575 30000000000 0.003111 0.004146 0.002292
372 1 0.000574 30000000000 0.000586 0.000027 0.003679
373 1 0.000573 30000000000 0.001857 0.006056 0.001138
374 1 0.000572 30000000000 0.005587 0.002715 0.002917
375 1 0.000571 30000000000 0.001986 0.002318 0.004251
376 1 0.000571 30000000000 0.005139 0.002570 0.001481
377 1 0.000569 30000000000 0.001478 0.006295 0.001492
378 1 0.000569 30000000000 0.005263 0.003397 0.003807
379 1 0.000565 30000000000 0.002663 0.003753 0.003097
380 1 0.000564 30000000000 0.003345 0.004176 0.004874
381 1 0.000563 30000000000 0.004613 0.000595 0.005383
382 1 0.000562 30000000000 0.003590 0.000706 0.001032
383 1 0.000562 30000000000 0.000307 0.001483 0.000654
384 1 0.000561 30000000000 0.001975 0.001651 0.001082
385 1 0.000561 30000000000 0.001998 0.004365 0.003879
386 1 0.000560 30000000000 0.000509 0.004021 0.004224
387 1 0.000560 30000000000 0.004544 0.000129 0.001486
388 1 0.000559 30000000000 0.001566 0.005572 0.000330
389 1 0.000557 30000000000 0.000893 0.001795 0.001786
390 1 0.000556 30000000000 0.000453 0.000439 0.004049
391 1 0.000556 30000000000 0.002147 0.005359 0.006139
392 1 0.000556 30000000000 0.005335 0.003486 0.005302
393 1 0.000556 30000000000 0.003067 0.001359 0.004058
394 1 0.000555 30000000000 0.000766 0.000679 0.005221
395 1 0.000555 30000000000 0.006136 0.002096 0.004704
396 1 0.000551 30000000000 0.002287 0.004967 0.003844
397 1 0.000551 30000000000 0.003564 0.006260 0.004445
398 1 0.000551 30000000000 0.006247 0.003931 0.004459
399 1 0.000550 30000000000 0.006227 0.006299 0.002469
400 1 0.000549 30000000000 0.000610 0.003237 0.006014
401 1 0.000547 30000000000 0.004040 0.002918 0.001221
402 1 0.000546 30000000000 0.001881 0.003905 0.002816
403 1 0.000546 30000000000 0.006335 0.000513 0.000594
404 1 0.000546 30000000000 0.006058 0.006242 0.003055
405 1 0.000545 30000000000 0.000886 0.001686 0.006403
406 1 0.000545 30000000000 0.001448 0.005599 0.004866
407 1 0.000544 30000000000 0.000709 0.002136 0.000217
408 1 0.000543 30000000000 0.001280 0.000259 0.001148
409 1 0.000543 30000000000 0.004081 0.000014 0.004456
410 1 0.000542 30000000000 0.000528 0.002652 0.003079
411 1 0.000542 30000000000 0.001483 0.005459 0.005394
412 1 0.000541 30000000000 0.002591 0.001260 0.001126
413 1 0.000541 30000000000 0.000845 0.005206 0.000250
414 1 0.000539 30000000000 0.002788 0.002784 0.001353
415 1 0.000539 30000000000 0.004343 0.005201 0.000457
416 1 0.000539 30000000000 0.000512 0.003972 0.002714
417 1 0.000539 30000000000 0.002585 0.001848 0.000933
418 1 0.000538 30000000000 0.004905 0.005198 0.000527
419 1 0.000538 30000000000 0.004464 0.001202 0.001398
420 1 0.000537 30000000000 0.001143 0.000319 0.005396
421 1 0.000537 30000000000 0.003759 0.004493 0.004590
422 1 0.000537 30000000000 0.002197 0.001809 0.004186
423 1 0.000536 30000000000 0.005559 0.002594 0.000637
424 1 0.000536 30000000000 0.001388 0.005879 0.001844
425 1 0.000535 30000000000 0.002061 0.003244 0.004280
426 1 0.000534 30000000000 0.004963 0.001775 0.005703
427 1 0.000534 30000000000 0.000712 0.005540 0.002692
428 1 0.000534 30000000000 0.004449 0.004105 0.002766
429 1 0.000534 30000000000 0.004876 0.000868 0.001189
430 1 0.000533 30000000000 0.005044 0.006182 0.000869
431 1 0.000533 30000000000 0.006166 0.000330 0.001749
432 1 0.000532 30000000000 0.005111 0.002805 0.003295
433 1 0.000532 30000000000 0.004640 0.006130 0.004596
434 1 0.000531 30000000000 0.004270 0.000049 0.003954
435 1 0.000531 30000000000 0.005936 0.004505 0.000690
436 1 0.000531 30000000000 0.004994 0.001441 0.006394
437 1 0.000530 30000000000 0.002113 0.005639 0.002058
438 1 0.000529 30000000000 0.002320 0.006304 0.000975
439 1 0.000529 30000000000 0.005854 0.001178 0.005461
440 1 0.000529 30000000000 0.003145 0.005592 0.001987
441 1 0.000528 30000000000 0.005706 0.005202 0.004414
442 1 0.000528 30000000000 0.005946 0.002590 0.004586
443 1 0.000527 30000000000 0.001065 0.001064 0.003790
444 1 0.000526 30000000000 0.003828 0.002973 0.001711
445 1 0.000526 30000000000 0.003876 0.004932 0.005126
446 1 0.000526 30000000000 0.002042 0.002403 0.005290
447 1 0.000526 30000000000 0.004793 0.001641 0.004698
448 1 0.000525 30000000000 0.005889 0.000231 0.005692
449 1 0.000525 30000000000 0.003943 0.005815 0.000931
450 1 0.000523 30000000000 0.001511 0.002351 0.005832
451 1 0.000523 30000000000 0.003972 0.002698 0.006027
452 1 0.000523 30000000000 0.002818 0.004354 0.004902
453 1 0.000523 30000000000 0.003902 0.005793 0.005599
454 1 0.000522 30000000000 0.003935 0.001711 0.000372
455 1 0.000521 30000000000 0.004899 0.004613 0.005540
456 1 0.000520 30000000000 0.000145 0.001320 0.001877
457 1 0.000520 30000000000 0.000436 0.006237 0.001136
458 1 0.000519 30000000000 0.004204 0.000651 0.005731
459 1 0.000517 30000000000 0.003326 0.004955 0.006282
460 1 0.000516 30000000000 0.003536 0.001047 0.004692
461 1 0.000516 30000000000 0.004322 0.004810 0.004887
462 1 0.000515 30000000000 0.004546 0.004248 0.005649
463 1 0.000515 30000000000 0.004356 0.002438 0.004593
464 1 0.000515 30000000000 0.004504 0.003872 0.006084
465 1 0.000514 30000000000 0.000062 0.003568 0.000781
466 1 0.000514 30000000000 0.003488 0.003614 0.001058
467 1 0.000514 30000000000 0.001179 0.005150 0.005088
468 1 0.000514 30000000000 0.004627 0.003597 0.002654
469 1 0.000513 30000000000 0.004315 0.002958 0.004690
470 1 0.000513 30000000000 0.005547 0.002374 0.006363
471 1 0.000513 30000000000 0.003807 0.003245 0.000022
472 1 0.000513 30000000000 0.000796 0.002093 0.002228
473 1 0.000513 30000000000 0.002219 0.001610 0.003474
474 1 0.000513 30000000000 0.001154 0.005055 0.001276
475 1 0.000512 30000000000 0.000083 0.003818 0.001316
476 1 0.000512 30000000000 0.003925 0.002642 0.004402
477 1 0.000512 30000000000 0.002877 0.006140 0.000978
478 1 0.000511 30000000000 0.004449 0.005695 0.001995
479 1 0.000510 30000000000 0.002287 0.003103 0.002494
480 1 0.000510 30000000000 0.001610 0.002074 0.004605
481 1 0.000509 30000000000 0.002043 0.003990 0.004258
482 1 0.000508 30000000000 0.001392 0.003565 0.005391
483 1 0.000508 30000000000 0.005689 0.005935 0.002816
484 1 0.000508 30000000000 0.000619 0.004418 0.003885
485 1 0.000507 30000000000 0.002875 0.004215 0.002930
486 1 0.000506 30000000000 0.001108 0.004751 0.000582
487 1 0.000506 30000000000 0.003665 0.000098 0.006278
488 1 0.000506 30000000000 0.006225 0.000059 0.006055
489 1 0.000504 30000000000 0.000521 0.002341 0.002658
490 1 0.000504 30000000000 0.004990 0.001480 0.004138
491 1 0.000502 30000000000 0.002553 0.002904 0.000447
492 1 0.000502 30000000000 0.001283 0.002103 0.001972
493 1 0.000502 30000000000 0.001225 0.006319 0.006064
494 1 0.000501 30000000000 0.000456 0.001547 0.005879
495 1 0.000501 30000000000 0.001855 0.002695 0.005671
496 1 0.000501 30000000000 0.000260 0.002206 0.003122
497 1 0.000501 30000000000 0.001117 0.002450 0.001463

Velocities

1 0 0 0 0 0 0
2 0 0 0 0 0 0
3 0 0 0 0 0 0
4 0 0 0 0 0 0
5 0 0 0 0 0 0
6 0 0 0 0 0 0
7 0 0 0 0 0 0
8 0 0 0 0 0 0
9 0 0 0 0 0 0
10 0 0 0 0 0 0
11 0 0 0 0 0 0
12 0 0 0 0 0 0
13 0 0 0 0 0 0
14 0 0 0 0 0 0
15 0 0 0 0 0 0
16 0 0 0 0 0 0
17 0 0 0 0 0 0
18 0 0 0 0 0 0
19 0 0 0 0 0 0
20 0 0 0 0 0 0
21 0 0 0 0 0 0
22 0 0 0 0 0 0
23 0 0 0 0 0 0
24 0 0 0 0 0 0
25 0 0 0 0 0 0
26 0 0 0 0 0 0
27 0 0 0 0 0 0
28 0 0 0 0 0 0
29 0 0 0 0 0 0
30 0 0 0 0 0 0
31 0 0 0 0 0 0
32 0 0 0 0 0 0
33 0 0 0 0 0 0
34 0 0 0 0 0 0
35 0 0 0 0 0 0
36 0 0 0 0 0 0
37 0 0 0 0 0 0
38 0 0 0 0 0 0
39 0 0 0 0 0 0
40 0 0 0 0 0 0
41 0 0 0 0 0 0
42 0 0 0 0 0 0
43 0 0 0 0 0 0
44 0 0 0 0 0 0
45 0 0 0 0 0 0
46 0 0 0 0 0 0
47 0 0 0 0 0 0
48 0 0 0 0 0 0
49 0 0 0 0 0 0
50 0 0 0 0 0 0
51 0 0 0 0 0 0
52 0 0 0 0 0 0
53 0 0 0 0 0 0
54 0 0 0 0 0 0
55 0 0 0 0 0 0
56 0 0 0 0 0 0
57 0 0 0 0 0 0
58 0 0 0 0 0 0
59 0 0 0 0 0 0
60 0 0 0 0 0 0
61 0 0 0 0 0 0
62 0 0 0 0 0 0
63 0 0 0 0 0 0
64 0 0 0 0 0 0
65 0 0 0 0 0 0
66 0 0 0 0 0 0
67 0 0 0 0 0 0
68 0 0 0 0 0 0
69 0 0 0 0 0 0
70 0 0 0 0 0 0
71 0 0 0 0 0 0
72 0 0 0 0 0 0
73 0 0 0 0 0 0
74 0 0 0 0 0 0
75 0 0 0 0 0 0
76 0 0 0 0 0 0
77 0 0 0 0 0 0
78 0 0 0 0 0 0
79 0 0 0 0 0 0
80 0 0 0 0 0 0
81 0 0 0 0 0 0
82 0 0 0 0 0 0
83 0 0 0 0 0 0
84 0 0 0 0 0 0
85 0 0 0 0 0 0
86 0 0 0 0 0 0
87 0 0 0 0 0 0
88 0 0 0 0 0 0
89 0 0 0 0 0 0
90 0 0 0 0 0 0
91 0 0 0 0 0 0
92 0 0 0 0 0 0
93 0 0 0 0 0 0
94 0 0 0 0 0 0
95 0 0 0 0 0 0
96 0 0 0 0 0 0
97 0 0 0 0 0 0
98 0 0 0 0 0 0
99 0 0 0 0 0 0
100 0 0 0 0 0 0
101 0 0 0 0 0 0
102 0 0 0 0 0 0
103 0 0 0 0 0 0
104 0 0 0 0 0 0
105 0 0 0 0 0 0
106 0 0 0 0 0 0
107 0 0 0 0 0 0
108 0 0 0 0 0 0
109 0 0 0 0 0 0
110 0 0 0 0 0 0
111 0 0 0 0 0 0
112 0 0 0 0 0 0
113 0 0 0 0 0 0
114 0 0 0 0 0 0
115 0 0 0 0 0 0
116 0 0 0 0 0 0
117 0 0 0 0 0 0
118 0 0 0 0 0 0
119 0 0 0 0 0 0
120 0 0 0 0 0 0
121 0 0 0 0 0 0
122 0 0 0 0 0 0
123 0 0 0 0 0 0
124 0 0 0 0 0 0
125 0 0 0 0 0 0
126 0 0 0 0 0 0
127 0 0 0 0 0 0
128 0 0 0 0 0 0
129 0 0 0 0 0 0
130 0 0 0 0 0 0
131 0 0 0 0 0 0
132 0 0 0 0 0 0
133 0 0 0 0 0 0
134 0 0 0 0 0 0
135 0 0 0 0 0 0
136 0 0 0 0 0 0
137 0 0 0 0 0 0
138 0 0 0 0 0 0
139 0 0 0 0 0 0
140 0 0 0 0 0 0
141 0 0 0 0 0 0
142 0 0 0 0 0 0
143 0 0 0 0 0 0
144 0 0 0 0 0 0
145 0 0 0 0 0 0
146 0 0 0 0 0 0
147 0 0 0 0 0 0
148 0 0 0 0 0 0
149 0 0 0 0 0 0
150 0 0 0 0 0 0
151 0 0 0 0 0 0
152 0 0 0 0 0 0
153 0 0 0 0 0 0
154 0 0 0 0 0 0
155 0 0 0 0 0 0
156 0 0 0 0 0 0
157 0 0 0 0 0 0
158 0 0 0 0 0 0
159 0 0 0 0 0 0
160 0 0 0 0 0 0
161 0 0 0 0 0 0
162 0 0 0 0 0 0
163 0 0 0 0 0 0
164 0 0 0 0 0 0
165 0 0 0 0 0 0
166 0 0 0 0 0 0
167 0 0 0 0 0 0
168 0 0 0 0 0 0
169 0 0 0 0 0 0
170 0 0 0 0 0 0
171 0 0 0 0 0 0
172 0 0 0 0 0 0
173 0 0 0 0 0 0
174 0 0 0 0 0 0
175 0 0 0 0 0 0
176 0 0 0 0 0 0
177 0 0 0 0 0 0
178 0 0 0 0 0 0
179 0 0 0 0 0 0
180 0 0 0 0 0 0
181 0 0 0 0 0 0
182 0 0 0 0 0 0
183 0 0 0 0 0 0
184 0 0 0 0 0 0
185 0 0 0 0 0 0
186 0 0 0 0 0 0
187 0 0 0 0 0 0
188 0 0 0 0 0 0
189 0 0 0 0 0 0
190 0 0 0 0 0 0
191 0 0 0 0 0 0
192 0 0 0 0 0 0
193 0 0 0 0 0 0
194 0 0 0 0 0 0
195 0 0 0 0 0 0
196 0 0 0 0 0 0
197 0 0 0 0 0 0
198 0 0 0 0 0 0