# Coordinates of a bcc lattice for 497 spheres of diameter 0.001745
1 atom types
497 atoms
#porosity is xxx
0.0 0.00768632 xlo xhi
0.0 0.00768632 ylo yhi
0.0 0.00768632 zlo zhi

Atoms

1 1 0.001745 30000000000 0.001698 0.000194 0.005499
2 1 0.001718 30000000000 0.001712 0.003844 0.002814
3 1 0.001718 30000000000 0.003766 0.000263 0.003896
4 1 0.001664 30000000000 0.000605 0.007272 0.006682
5 1 0.001663 30000000000 0.004569 0.006600 0.004636
6 1 0.001656 30000000000 0.005916 0.005044 0.005416
7 1 0.001613 30000000000 0.001428 0.003721 0.000533
8 1 0.001609 30000000000 0.000739 0.002190 0.005593
9 1 0.001586 30000000000 0.003530 0.003744 0.005060
10 1 0.001573 30000000000 0.007156 0.004142 0.007520
11 1 0.001573 30000000000 0.007643 0.006515 0.000327
12 1 0.001570 30000000000 0.006411 0.000471 0.007601
13 1 0.001549 30000000000 0.007034 0.001043 0.003060
14 1 0.001531 30000000000 0.003377 0.000827 0.000732
15 1 0.001528 30000000000 0.006727 0.007381 0.002367
16 1 0.001524 30000000000 0.007523 0.003137 0.001736
17 1 0.001524 30000000000 0.002783 0.002173 0.007046
18 1 0.001490 30000000000 0.003065 0.002333 0.003141
19 1 0.001472 30000000000 0.003198 0.005408 0.004780
20 1 0.001465 30000000000 0.005528 0.004797 0.002192
21 1 0.001464 30000000000 0.001391 0.005776 0.007120
22 1 0.001454 30000000000 0.004487 0.003943 0.003301
23 1 0.001453 30000000000 0.005400 0.000321 0.003839
24 1 0.001449 30000000000 0.007673 0.004503 0.004051
25 1 0.001446 30000000000 0.004039 0.004981 0.001029
26 1 0.001433 30000000000 0.001055 0.000044 0.002287
27 1 0.001433 30000000000 0.002523 0.005821 0.002570
28 1 0.001429 30000000000 0.006122 0.001955 0.000995
29 1 0.001428 30000000000 0.004630 0.001686 0.005117
30 1 0.001418 30000000000 0.003458 0.005405 0.007045
31 1 0.001410 30000000000 0.000420 0.004283 0.006134
32 1 0.001379 30000000000 0.001901 0.005731 0.005659
33 1 0.001356 30000000000 0.006923 0.000697 0.004474
34 1 0.001356 30000000000 0.006591 0.006409 0.004412
35 1 0.001351 30000000000 0.005460 0.007135 0.006609
36 1 0.001310 30000000000 0.000664 0.006249 0.005385
37 1 0.001303 30000000000 0.007619 0.002867 0.006713
38 1 0.001265 30000000000 0.004973 0.001636 0.003350
39 1 0.001258 30000000000 0.002339 0.001116 0.003823
40 1 0.001256 30000000000 0.005799 0.000685 0.005149
41 1 0.001255 30000000000 0.001487 0.002494 0.003399
42 1 0.001251 30000000000 0.004161 0.007032 0.001661
43 1 0.001247 30000000000 0.007525 0.003211 0.004415
44 1 0.001242 30000000000 0.001802 0.003147 0.005268
45 1 0.001239 30000000000 0.004642 0.006868 0.003122
46 1 0.001232 30000000000 0.006870 0.005936 0.006342
47 1 0.001225 30000000000 0.005279 0.003373 0.004535
48 1 0.001212 30000000000 0.004256 0.002903 0.005980
49 1 0.001212 30000000000 0.001367 0.002086 0.001011
50 1 0.001199 30000000000 0.002612 0.007006 0.000701
51 1 0.001197 30000000000 0.000502 0.005120 0.000223
52 1 0.001191 30000000000 0.005967 0.003441 0.002562
53 1 0.001184 30000000000 0.003101 0.006903 0.005096
54 1 0.001176 30000000000 0.001122 0.005081 0.002298
55 1 0.001171 30000000000 0.003892 0.002956 0.007455
56 1 0.001170 30000000000 0.002685 0.007426 0.007072
57 1 0.001170 30000000000 0.000305 0.001277 0.006557
58 1 0.001148 30000000000 0.001444 0.006958 0.003297
59 1 0.001141 30000000000 0.005929 0.005707 0.007268
60 1 0.001141 30000000000 0.007469 0.004202 0.002557
61 1 0.001138 30000000000 0.001131 0.004999 0.003633
62 1 0.001135 30000000000 0.004627 0.001257 0.001925
63 1 0.001130 30000000000 0.004509 0.005597 0.002589
64 1 0.001118 30000000000 0.000656 0.000252 0.000254
65 1 0.001113 30000000000 0.006311 0.005195 0.003137
66 1 0.001111 30000000000 0.002909 0.000958 0.005531
67 1 0.001111 30000000000 0.002233 0.000030 0.002837
68 1 0.001110 30000000000 0.004843 0.004306 0.006348
69 1 0.001108 30000000000 0.007508 0.006518 0.003084
70 1 0.001107 30000000000 0.006575 0.001807 0.005218
71 1 0.001104 30000000000 0.007449 0.001958 0.004206
72 1 0.001089 30000000000 0.003981 0.000161 0.007019
73 1 0.001089 30000000000 0.004601 0.001513 0.006989
74 1 0.001086 30000000000 0.002075 0.001639 0.002342
75 1 0.001086 30000000000 0.002527 0.004634 0.001443
76 1 0.001086 30000000000 0.001024 0.005813 0.001126
77 1 0.001084 30000000000 0.005898 0.006336 0.002285
78 1 0.001081 30000000000 0.006193 0.004412 0.000933
79 1 0.001080 30000000000 0.000726 0.006105 0.002616
80 1 0.001078 30000000000 0.002492 0.004173 0.003975
81 1 0.001074 30000000000 0.002948 0.004811 0.005880
82 1 0.001066 30000000000 0.004148 0.002851 0.003921
83 1 0.001065 30000000000 0.002923 0.006917 0.003113
84 1 0.001062 30000000000 0.002464 0.004658 0.006831
85 1 0.001062 30000000000 0.003777 0.007139 0.005964
86 1 0.001059 30000000000 0.003771 0.001745 0.006082
87 1 0.001057 30000000000 0.003042 0.003622 0.007047
88 1 0.001057 30000000000 0.005694 0.002449 0.007214
89 1 0.001056 30000000000 0.002027 0.005599 0.001441
90 1 0.001043 30000000000 0.005886 0.001126 0.002389
91 1 0.001040 30000000000 0.004684 0.004437 0.005181
92 1 0.001020 30000000000 0.003911 0.006955 0.000067
93 1 0.001019 30000000000 0.004165 0.001840 0.000394
94 1 0.001016 30000000000 0.000365 0.003157 0.003023
95 1 0.001011 30000000000 0.001788 0.001081 0.000436
96 1 0.001007 30000000000 0.003831 0.004256 0.001998
97 1 0.001005 30000000000 0.002547 0.002820 0.002112
98 1 0.001001 30000000000 0.005306 0.002507 0.002092
99 1 0.000999 30000000000 0.000188 0.000446 0.001256
100 1 0.000995 30000000000 0.002221 0.000746 0.007108
101 1 0.000994 30000000000 0.001816 0.000052 0.000503
102 1 0.000993 30000000000 0.001672 0.004590 0.005331
103 1 0.000975 30000000000 0.005740 0.002650 0.005442
104 1 0.000969 30000000000 0.005182 0.002325 0.006178
105 1 0.000969 30000000000 0.002499 0.002657 0.000603
106 1 0.000962 30000000000 0.007593 0.006960 0.004036
107 1 0.000960 30000000000 0.005419 0.006871 0.000665
108 1 0.000956 30000000000 0.006625 0.000839 0.001424
109 1 0.000950 30000000000 0.000416 0.000726 0.004521
110 1 0.000939 30000000000 0.000233 0.005251 0.001496
111 1 0.000937 30000000000 0.000179 0.003919 0.000849
112 1 0.000935 30000000000 0.005027 0.002466 0.000509
113 1 0.000934 30000000000 0.000445 0.002038 0.002463
114 1 0.000929 30000000000 0.002175 0.002302 0.005961
115 1 0.000924 30000000000 0.005837 0.005357 0.004163
116 1 0.000922 30000000000 0.005907 0.001378 0.004187
117 1 0.000920 30000000000 0.001756 0.006758 0.004771
118 1 0.000920 30000000000 0.006989 0.001037 0.006381
119 1 0.000912 30000000000 0.001624 0.000284 0.003862
120 1 0.000909 30000000000 0.002987 0.004496 0.000395
121 1 0.000905 30000000000 0.006325 0.003087 0.006072
122 1 0.000900 30000000000 0.001414 0.001403 0.004390
123 1 0.000900 30000000000 0.003062 0.004123 0.003100
124 1 0.000897 30000000000 0.007479 0.001717 0.001502
125 1 0.000896 30000000000 0.002981 0.007195 0.001876
126 1 0.000895 30000000000 0.004612 0.000075 0.000417
127 1 0.000894 30000000000 0.006750 0.005762 0.002414
128 1 0.000885 30000000000 0.001713 0.001528 0.006969
129 1 0.000884 30000000000 0.006767 0.002419 0.002396
130 1 0.000878 30000000000 0.004960 0.004723 0.004163
131 1 0.000873 30000000000 0.002376 0.003058 0.003945
132 1 0.000871 30000000000 0.005574 0.001341 0.006211
133 1 0.000867 30000000000 0.004325 0.005367 0.006234
134 1 0.000866 30000000000 0.001835 0.006850 0.007431
135 1 0.000866 30000000000 0.006164 0.004647 0.006768
136 1 0.000863 30000000000 0.005778 0.003550 0.001244
137 1 0.000862 30000000000 0.006634 0.003845 0.005258
138 1 0.000858 30000000000 0.000936 0.002870 0.007453
139 1 0.000853 30000000000 0.004815 0.000305 0.006212
140 1 0.000850 30000000000 0.005830 0.003443 0.000069
141 1 0.000850 30000000000 0.003889 0.002595 0.000874
142 1 0.000849 30000000000 0.002562 0.003484 0.001145
143 1 0.000846 30000000000 0.006144 0.007083 0.005404
144 1 0.000844 30000000000 0.004900 0.004830 0.000278
145 1 0.000842 30000000000 0.003781 0.006064 0.005870
146 1 0.000840 30000000000 0.003662 0.001959 0.001948
147 1 0.000840 30000000000 0.003620 0.000546 0.002641
148 1 0.000838 30000000000 0.005218 0.006390 0.007516
149 1 0.000838 30000000000 0.003879 0.003331 0.001975
150 1 0.000838 30000000000 0.000949 0.006231 0.004163
151 1 0.000836 30000000000 0.007193 0.007533 0.005818
152 1 0.000835 30000000000 0.006463 0.003075 0.006954
153 1 0.000832 30000000000 0.001031 0.003924 0.007075
154 1 0.000829 30000000000 0.002767 0.006878 0.006217
155 1 0.000828 30000000000 0.000958 0.002004 0.007077
156 1 0.000825 30000000000 0.006991 0.006492 0.005469
157 1 0.000825 30000000000 0.005588 0.005397 0.000955
158 1 0.000823 30000000000 0.005791 0.004337 0.003300
159 1 0.000820 30000000000 0.002976 0.003881 0.002035
160 1 0.000818 30000000000 0.007103 0.001705 0.000130
161 1 0.000818 30000000000 0.006513 0.006546 0.001466
162 1 0.000817 30000000000 0.002761 0.005906 0.000612
163 1 0.000816 30000000000 0.003586 0.006514 0.006763
164 1 0.000813 30000000000 0.005778 0.006862 0.003166
165 1 0.000811 30000000000 0.005778 0.002322 0.003496
166 1 0.000808 30000000000 0.006945 0.005350 0.000016
167 1 0.000806 30000000000 0.007560 0.002681 0.000534
168 1 0.000802 30000000000 0.006228 0.005478 0.001458
169 1 0.000802 30000000000 0.004959 0.004227 0.001288
170 1 0.000800 30000000000 0.001609 0.002510 0.000107
171 1 0.000798 30000000000 0.005419 0.000257 0.001038
172 1 0.000798 30000000000 0.007218 0.004477 0.001268
173 1 0.000795 30000000000 0.000942 0.007351 0.004266
174 1 0.000794 30000000000 0.007409 0.002359 0.002992
175 1 0.000792 30000000000 0.006791 0.004668 0.006223
176 1 0.000791 30000000000 0.006347 0.003171 0.004150
177 1 0.000791 30000000000 0.004094 0.001696 0.004112
178 1 0.000787 30000000000 0.002224 0.000771 0.001170
179 1 0.000783 30000000000 0.000397 0.002266 0.001178
180 1 0.000783 30000000000 0.006211 0.007403 0.004584
181 1 0.000781 30000000000 0.006656 0.006360 0.007325
182 1 0.000780 30000000000 0.007121 0.006070 0.001707
183 1 0.000778 30000000000 0.000290 0.005780 0.006356
184 1 0.000777 30000000000 0.000449 0.007579 0.003480
185 1 0.000775 30000000000 0.000180 0.002132 0.007521
186 1 0.000772 30000000000 0.000200 0.003392 0.005507
187 1 0.000772 30000000000 0.000302 0.000496 0.005842
188 1 0.000768 30000000000 0.004753 0.003052 0.001078
189 1 0.000767 30000000000 0.003102 0.001076 0.003141
190 1 0.000766 30000000000 0.004439 0.006033 0.001717
191 1 0.000766 30000000000 0.004918 0.000308 0.007169
192 1 0.000765 30000000000 0.007364 0.007370 0.001359
193 1 0.000762 30000000000 0.005229 0.000475 0.002106
194 1 0.000762 30000000000 0.003164 0.002450 0.005593
195 1 0.000761 30000000000 0.003756 0.004387 0.006773
196 1 0.000761 30000000000 0.005377 0.003425 0.007044
197 1 0.000760 30000000000 0.001913 0.003188 0.006346
198 1 0.000759 30000000000 0.003499 0.003770 0.000324
199 1 0.000758 30000000000 0.001902 0.006631 0.001298
200 1 0.000751 30000000000 0.005652 0.002149 0.004697
201 1 0.000742 30000000000 0.002981 0.005848 0.003763
202 1 0.000740 30000000000 0.006612 0.005928 0.000450
203 1 0.000738 30000000000 0.004767 0.000429 0.005427
204 1 0.000736 30000000000 0.003569 0.006261 0.002731
205 1 0.000735 30000000000 0.006788 0.001540 0.001899
206 1 0.000733 30000000000 0.004401 0.002106 0.001486
207 1 0.000731 30000000000 0.001066 0.006948 0.000745
208 1 0.000730 30000000000 0.000683 0.001567 0.001813
209 1 0.000729 30000000000 0.003597 0.006199 0.000502
210 1 0.000729 30000000000 0.001640 0.000907 0.001934
211 1 0.000728 30000000000 0.005014 0.005612 0.001441
212 1 0.000728 30000000000 0.003391 0.000973 0.006946
213 1 0.000728 30000000000 0.002554 0.001525 0.000254
214 1 0.000727 30000000000 0.007581 0.007010 0.004880
215 1 0.000725 30000000000 0.001201 0.003509 0.006189
216 1 0.000724 30000000000 0.007511 0.000656 0.000365
217 1 0.000721 30000000000 0.003110 0.006238 0.001290
218 1 0.000719 30000000000 0.001717 0.001251 0.006213
219 1 0.000719 30000000000 0.005995 0.006551 0.000098
220 1 0.000718 30000000000 0.003768 0.005119 0.002275
221 1 0.000715 30000000000 0.002221 0.003850 0.005844
222 1 0.000715 30000000000 0.007381 0.005323 0.007025
223 1 0.000713 30000000000 0.005709 0.004390 0.004232
224 1 0.000713 30000000000 0.001731 0.001731 0.005145
225 1 0.000712 30000000000 0.003147 0.004018 0.001180
226 1 0.000710 30000000000 0.004743 0.003645 0.000507
227 1 0.000709 30000000000 0.002145 0.004712 0.000508
228 1 0.000706 30000000000 0.005421 0.003710 0.005964
229 1 0.000704 30000000000 0.003333 0.003150 0.006316
230 1 0.000704 30000000000 0.006570 0.004243 0.003757
231 1 0.000703 30000000000 0.004142 0.000317 0.001479
232 1 0.000701 30000000000 0.000659 0.001535 0.000264
233 1 0.000699 30000000000 0.003061 0.006593 0.003931
234 1 0.000699 30000000000 0.007118 0.005884 0.003637
235 1 0.000697 30000000000 0.002996 0.003087 0.000072
236 1 0.000696 30000000000 0.006806 0.007251 0.006424
237 1 0.000693 30000000000 0.003457 0.000639 0.001832
238 1 0.000692 30000000000 0.003229 0.003422 0.003991
239 1 0.000691 30000000000 0.005348 0.006066 0.005566
240 1 0.000687 30000000000 0.003148 0.006629 0.007541
241 1 0.000686 30000000000 0.007409 0.005571 0.004744
242 1 0.000684 30000000000 0.006813 0.000523 0.005516
243 1 0.000682 30000000000 0.006170 0.003881 0.004583
244 1 0.000681 30000000000 0.000636 0.003732 0.004664
245 1 0.000679 30000000000 0.002043 0.005379 0.003735
246 1 0.000678 30000000000 0.000510 0.000093 0.005114
247 1 0.000678 30000000000 0.000232 0.001951 0.003362
248 1 0.000677 30000000000 0.007595 0.005236 0.002574
249 1 0.000677 30000000000 0.003290 0.003278 0.000907
250 1 0.000676 30000000000 0.001256 0.004400 0.004452
251 1 0.000676 30000000000 0.006964 0.003583 0.000890
252 1 0.000674 30000000000 0.001546 0.000243 0.001281
253 1 0.000673 30000000000 0.005698 0.006359 0.003904
254 1 0.000673 30000000000 0.005015 0.005790 0.006160
255 1 0.000672 30000000000 0.002392 0.006344 0.003794
256 1 0.000671 30000000000 0.006047 0.002091 0.002597
257 1 0.000669 30000000000 0.004286 0.005957 0.003659
258 1 0.000669 30000000000 0.006666 0.007027 0.000812
259 1 0.000667 30000000000 0.005481 0.001609 0.007116
260 1 0.000662 30000000000 0.002467 0.007448 0.004667
261 1 0.000661 30000000000 0.002585 0.005913 0.006727
262 1 0.000661 30000000000 0.005649 0.004249 0.000266
263 1 0.000661 30000000000 0.006687 0.002510 0.006510
264 1 0.000660 30000000000 0.000987 0.000681 0.001166
265 1 0.000659 30000000000 0.001217 0.001414 0.002398
266 1 0.000658 30000000000 0.001290 0.003575 0.004157
267 1 0.000658 30000000000 0.004575 0.004357 0.007234
268 1 0.000657 30000000000 0.006800 0.005018 0.000748
269 1 0.000656 30000000000 0.006630 0.001825 0.006583
270 1 0.000655 30000000000 0.000887 0.001021 0.003135
271 1 0.000655 30000000000 0.006549 0.006442 0.002955
272 1 0.000653 30000000000 0.006694 0.002527 0.007404
273 1 0.000652 30000000000 0.005258 0.001039 0.007381
274 1 0.000651 30000000000 0.005054 0.006369 0.001502
275 1 0.000651 30000000000 0.000302 0.005756 0.004134
276 1 0.000651 30000000000 0.006850 0.003667 0.002982
277 1 0.000651 30000000000 0.001530 0.004266 0.006435
278 1 0.000651 30000000000 0.004823 0.004954 0.003428
279 1 0.000651 30000000000 0.005019 0.005529 0.004548
280 1 0.000649 30000000000 0.001732 0.005244 0.000683
281 1 0.000648 30000000000 0.004653 0.006967 0.006008
282 1 0.000646 30000000000 0.000559 0.004827 0.004934
283 1 0.000645 30000000000 0.004622 0.005956 0.000041
284 1 0.000645 30000000000 0.004292 0.006646 0.000792
285 1 0.000643 30000000000 0.005068 0.001320 0.000726
286 1 0.000641 30000000000 0.002831 0.003519 0.005906
287 1 0.000639 30000000000 0.003163 0.002254 0.004309
288 1 0.000639 30000000000 0.005020 0.005857 0.003484
289 1 0.000638 30000000000 0.004913 0.002731 0.003184
290 1 0.000637 30000000000 0.005525 0.000204 0.005938
291 1 0.000636 30000000000 0.003329 0.004574 0.003677
292 1 0.000636 30000000000 0.000995 0.005185 0.006320
293 1 0.000632 30000000000 0.004108 0.002266 0.002731
294 1 0.000631 30000000000 0.004935 0.006327 0.002176
295 1 0.000630 30000000000 0.005207 0.004901 0.006899
296 1 0.000629 30000000000 0.003275 0.006481 0.001947
297 1 0.000629 30000000000 0.004746 0.000837 0.004523
298 1 0.000628 30000000000 0.002455 0.001168 0.006448
299 1 0.000627 30000000000 0.000564 0.000648 0.007144
300 1 0.000626 30000000000 0.000558 0.001201 0.003812
301 1 0.000625 30000000000 0.004393 0.000772 0.002950
302 1 0.000624 30000000000 0.007606 0.005544 0.003169
303 1 0.000623 30000000000 0.006554 0.004121 0.002013
304 1 0.000623 30000000000 0.002039 0.004501 0.006085
305 1 0.000623 30000000000 0.001733 0.007681 0.007372
306 1 0.000623 30000000000 0.002947 0.001592 0.001709
307 1 0.000622 30000000000 0.005688 0.003013 0.003728
308 1 0.000621 30000000000 0.006025 0.007593 0.000869
309 1 0.000620 30000000000 0.002500 0.002194 0.005048
310 1 0.000618 30000000000 0.005277 0.002467 0.004050
311 1 0.000617 30000000000 0.000641 0.003581 0.003973
312 1 0.000615 30000000000 0.002943 0.000909 0.002474
313 1 0.000615 30000000000 0.007639 0.006612 0.001809
314 1 0.000615 30000000000 0.002385 0.005560 0.000060
315 1 0.000615 30000000000 0.005990 0.003865 0.007153
316 1 0.000614 30000000000 0.002189 0.003018 0.007637
317 1 0.000613 30000000000 0.004564 0.000141 0.002878
318 1 0.000613 30000000000 0.007656 0.005203 0.006133
319 1 0.000611 30000000000 0.003817 0.000239 0.005230
320 1 0.000609 30000000000 0.003439 0.003589 0.002712
321 1 0.000609 30000000000 0.002707 0.000068 0.006102
322 1 0.000606 30000000000 0.001659 0.004773 0.007222
323 1 0.000606 30000000000 0.003338 0.004917 0.002842
324 1 0.000606 30000000000 0.007097 0.004830 0.003262
325 1 0.000605 30000000000 0.003199 0.001498 0.004304
326 1 0.000604 30000000000 0.006618 0.005042 0.001850
327 1 0.000604 30000000000 0.002422 0.003804 0.007586
328 1 0.000603 30000000000 0.006595 0.002065 0.003379
329 1 0.000602 30000000000 0.007572 0.001195 0.005693
330 1 0.000601 30000000000 0.006197 0.000311 0.006507
331 1 0.000601 30000000000 0.001404 0.006054 0.003341
332 1 0.000601 30000000000 0.004843 0.002829 0.007507
333 1 0.000601 30000000000 0.005160 0.006157 0.002747
334 1 0.000601 30000000000 0.005114 0.003689 0.002428
335 1 0.000600 30000000000 0.001172 0.002956 0.001469
336 1 0.000600 30000000000 0.003537 0.000294 0.005817
337 1 0.000600 30000000000 0.003719 0.003763 0.006282
338 1 0.000600 30000000000 0.001519 0.003927 0.005769
339 1 0.000600 30000000000 0.002474 0.000054 0.003695
340 1 0.000600 30000000000 0.003943 0.004281 0.000246
341 1 0.000599 30000000000 0.006342 0.001427 0.006055
342 1 0.000599 30000000000 0.001635 0.000786 0.002962
343 1 0.000598 30000000000 0.005168 0.000595 0.000365
344 1 0.000596 30000000000 0.007160 0.003536 0.006081
345 1 0.000596 30000000000 0.007147 0.005138 0.005640
346 1 0.000595 30000000000 0.006694 0.002812 0.004666
347 1 0.000595 30000000000 0.003947 0.001480 0.003051
348 1 0.000594 30000000000 0.007424 0.000348 0.007091
349 1 0.000593 30000000000 0.004164 0.005036 0.004661
350 1 0.000591 30000000000 0.005152 0.001743 0.001425
351 1 0.000591 30000000000 0.004603 0.007440 0.007425
352 1 0.000590 30000000000 0.000224 0.001957 0.000559
353 1 0.000590 30000000000 0.007149 0.001986 0.000806
354 1 0.000589 30000000000 0.004272 0.000887 0.007504
355 1 0.000588 30000000000 0.001802 0.005486 0.004645
356 1 0.000588 30000000000 0.004589 0.002800 0.002661
357 1 0.000586 30000000000 0.004113 0.004782 0.002796
358 1 0.000586 30000000000 0.000920 0.005316 0.005252
359 1 0.000584 30000000000 0.004744 0.006328 0.006630
360 1 0.000584 30000000000 0.003533 0.002029 0.005006
361 1 0.000582 30000000000 0.003346 0.002168 0.000316
362 1 0.000582 30000000000 0.000179 0.000437 0.002712
363 1 0.000581 30000000000 0.002579 0.001506 0.001029
364 1 0.000581 30000000000 0.001471 0.002843 0.004390
365 1 0.000579 30000000000 0.003948 0.002912 0.003096
366 1 0.000577 30000000000 0.003742 0.004727 0.005574
367 1 0.000577 30000000000 0.005989 0.000678 0.000967
368 1 0.000576 30000000000 0.000558 0.002167 0.004442
369 1 0.000576 30000000000 0.002109 0.006587 0.006816
370 1 0.000575 30000000000 0.004044 0.002043 0.003494
371 1 0.000575 30000000000 0.004445 0.004814 0.002156
372 1 0.000574 30000000000 0.007349 0.007512 0.004516
373 1 0.000573 30000000000 0.002776 0.000813 0.001788
374 1 0.000572 30000000000 0.006941 0.003278 0.003698
375 1 0.000571 30000000000 0.003033 0.001789 0.004826
376 1 0.000571 30000000000 0.006016 0.002628 0.001762
377 1 0.000569 30000000000 0.001455 0.007208 0.001213
378 1 0.000569 30000000000 0.006751 0.004303 0.004423
379 1 0.000565 30000000000 0.003243 0.004434 0.004280
380 1 0.000564 30000000000 0.003132 0.005649 0.005892
381 1 0.000563 30000000000 0.006178 0.000603 0.006001
382 1 0.000562 30000000000 0.004620 0.000801 0.000512
383 1 0.000562 30000000000 0.000601 0.001595 0.001061
384 1 0.000561 30000000000 0.002374 0.001724 0.001568
385 1 0.000561 30000000000 0.002252 0.004696 0.004812
386 1 0.000560 30000000000 0.001236 0.005092 0.004489
387 1 0.000560 30000000000 0.005851 0.000399 0.001693
388 1 0.000559 30000000000 0.001444 0.006399 0.000699
389 1 0.000557 30000000000 0.001369 0.002177 0.001979
390 1 0.000556 30000000000 0.000231 0.001052 0.005239
391 1 0.000556 30000000000 0.002785 0.005117 0.000041
392 1 0.000556 30000000000 0.006421 0.004119 0.006357
393 1 0.000556 30000000000 0.003647 0.001558 0.004686
394 1 0.000555 30000000000 0.000777 0.001096 0.005337
395 1 0.000555 30000000000 0.007199 0.002777 0.005871
396 1 0.000551 30000000000 0.002425 0.007046 0.003747
397 1 0.000551 30000000000 0.004314 0.007633 0.005579
398 1 0.000551 30000000000 0.007116 0.004846 0.004964
399 1 0.000550 30000000000 0.007614 0.007414 0.003067
400 1 0.000549 30000000000 0.000436 0.003638 0.007418
401 1 0.000547 30000000000 0.005161 0.003383 0.001542
402 1 0.000546 30000000000 0.002221 0.004880 0.002771
403 1 0.000546 30000000000 0.007083 0.007476 0.000406
404 1 0.000546 30000000000 0.007129 0.007595 0.003901
405 1 0.000545 30000000000 0.001135 0.001902 0.000047
406 1 0.000545 30000000000 0.002395 0.006599 0.005494
407 1 0.000544 30000000000 0.000531 0.002579 0.000390
408 1 0.000543 30000000000 0.001249 0.006579 0.001421
409 1 0.000543 30000000000 0.005401 0.007153 0.005332
410 1 0.000542 30000000000 0.000646 0.002801 0.004263
411 1 0.000542 30000000000 0.001734 0.007182 0.006503
412 1 0.000541 30000000000 0.004729 0.001763 0.001031
413 1 0.000541 30000000000 0.000945 0.006839 0.000024
414 1 0.000539 30000000000 0.003327 0.002936 0.002104
415 1 0.000539 30000000000 0.004569 0.005850 0.001057
416 1 0.000539 30000000000 0.000338 0.004759 0.003148
417 1 0.000539 30000000000 0.003014 0.002304 0.001616
418 1 0.000538 30000000000 0.006140 0.006308 0.000948
419 1 0.000538 30000000000 0.005274 0.000785 0.001457
420 1 0.000537 30000000000 0.001467 0.000542 0.006613
421 1 0.000537 30000000000 0.004239 0.005192 0.005368
422 1 0.000537 30000000000 0.001922 0.002517 0.004185
423 1 0.000536 30000000000 0.006435 0.002973 0.001417
424 1 0.000536 30000000000 0.001384 0.006275 0.001846
425 1 0.000535 30000000000 0.002194 0.003943 0.005008
426 1 0.000534 30000000000 0.006048 0.001497 0.006874
427 1 0.000534 30000000000 0.000730 0.005745 0.003595
428 1 0.000534 30000000000 0.005424 0.005428 0.003508
429 1 0.000534 30000000000 0.005670 0.001089 0.000520
430 1 0.000533 30000000000 0.006775 0.007066 0.000099
431 1 0.000533 30000000000 0.000128 0.007620 0.001919
432 1 0.000532 30000000000 0.005990 0.003636 0.003839
433 1 0.000532 30000000000 0.005169 0.006682 0.005619
434 1 0.000531 30000000000 0.005132 0.000109 0.004981
435 1 0.000531 30000000000 0.006927 0.005527 0.001389
436 1 0.000531 30000000000 0.006179 0.001922 0.007618
437 1 0.000530 30000000000 0.001911 0.006411 0.002022
438 1 0.000529 30000000000 0.002540 0.000186 0.001486
439 1 0.000529 30000000000 0.007197 0.001644 0.005978
440 1 0.000529 30000000000 0.003676 0.006851 0.002471
441 1 0.000528 30000000000 0.005987 0.006321 0.005577
442 1 0.000528 30000000000 0.005807 0.003916 0.005074
443 1 0.000527 30000000000 0.001091 0.000919 0.004834
444 1 0.000526 30000000000 0.004800 0.003917 0.001858
445 1 0.000526 30000000000 0.004798 0.006249 0.005803
446 1 0.000526 30000000000 0.002496 0.003066 0.006602
447 1 0.000526 30000000000 0.005862 0.001684 0.005597
448 1 0.000525 30000000000 0.006370 0.007334 0.006902
449 1 0.000525 30000000000 0.005569 0.006236 0.001230
450 1 0.000523 30000000000 0.001797 0.002512 0.006783
451 1 0.000523 30000000000 0.004453 0.003296 0.006823
452 1 0.000523 30000000000 0.003215 0.006162 0.006280
453 1 0.000523 30000000000 0.004194 0.006648 0.007055
454 1 0.000522 30000000000 0.005595 0.001780 0.000156
455 1 0.000521 30000000000 0.005511 0.006141 0.006451
456 1 0.000520 30000000000 0.000585 0.000810 0.001876
457 1 0.000520 30000000000 0.000832 0.006964 0.001704
458 1 0.000519 30000000000 0.005445 0.000675 0.006594
459 1 0.000517 30000000000 0.004019 0.006127 0.007383
460 1 0.000516 30000000000 0.004159 0.000801 0.005618
461 1 0.000516 30000000000 0.004858 0.005406 0.005283
462 1 0.000515 30000000000 0.005692 0.005564 0.006458
463 1 0.000515 30000000000 0.004771 0.002660 0.004994
464 1 0.000515 30000000000 0.006092 0.004693 0.007577
465 1 0.000514 30000000000 0.001289 0.004339 0.001682
466 1 0.000514 30000000000 0.004065 0.003618 0.001392
467 1 0.000514 30000000000 0.001446 0.006774 0.005875
468 1 0.000514 30000000000 0.005516 0.005006 0.003190
469 1 0.000513 30000000000 0.004588 0.003636 0.005237
470 1 0.000513 30000000000 0.006482 0.002991 0.000296
471 1 0.000513 30000000000 0.004020 0.003372 0.000895
472 1 0.000513 30000000000 0.000950 0.002887 0.001981
473 1 0.000513 30000000000 0.002208 0.001935 0.004206
474 1 0.000513 30000000000 0.001571 0.005963 0.002239
475 1 0.000512 30000000000 0.000823 0.003756 0.001548
476 1 0.000512 30000000000 0.004230 0.003004 0.004787
477 1 0.000512 30000000000 0.003163 0.000070 0.001407
478 1 0.000511 30000000000 0.006331 0.007193 0.001435
479 1 0.000510 30000000000 0.002863 0.003426 0.003115
480 1 0.000510 30000000000 0.001283 0.001277 0.005415
481 1 0.000509 30000000000 0.002776 0.004495 0.005051
482 1 0.000508 30000000000 0.001733 0.004906 0.006505
483 1 0.000508 30000000000 0.006359 0.005718 0.003771
484 1 0.000508 30000000000 0.001327 0.005906 0.004656
485 1 0.000507 30000000000 0.003760 0.004841 0.003946
486 1 0.000506 30000000000 0.000990 0.004907 0.001111
487 1 0.000506 30000000000 0.004010 0.000297 0.000122
488 1 0.000506 30000000000 0.006864 0.007175 0.007276
489 1 0.000504 30000000000 0.000557 0.002441 0.003713
490 1 0.000504 30000000000 0.006440 0.002288 0.003877
491 1 0.000502 30000000000 0.002427 0.004063 0.000396
492 1 0.000502 30000000000 0.001546 0.002873 0.002294
493 1 0.000502 30000000000 0.001163 0.000863 0.007669
494 1 0.000501 30000000000 0.001213 0.001436 0.007444
495 1 0.000501 30000000000 0.001775 0.003717 0.006944
496 1 0.000501 30000000000 0.001063 0.001953 0.004128
497 1 0.000501 30000000000 0.002160 0.002843 0.001447

Velocities

1 0 0 0 0 0 0
2 0 0 0 0 0 0
3 0 0 0 0 0 0
4 0 0 0 0 0 0
5 0 0 0 0 0 0
6 0 0 0 0 0 0
7 0 0 0 0 0 0
8 0 0 0 0 0 0
9 0 0 0 0 0 0
10 0 0 0 0 0 0
11 0 0 0 0 0 0
12 0 0 0 0 0 0
13 0 0 0 0 0 0
14 0 0 0 0 0 0
15 0 0 0 0 0 0
16 0 0 0 0 0 0
17 0 0 0 0 0 0
18 0 0 0 0 0 0
19 0 0 0 0 0 0
20 0 0 0 0 0 0
21 0 0 0 0 0 0
22 0 0 0 0 0 0
23 0 0 0 0 0 0
24 0 0 0 0 0 0
25 0 0 0 0 0 0
26 0 0 0 0 0 0
27 0 0 0 0 0 0
28 0 0 0 0 0 0
29 0 0 0 0 0 0
30 0 0 0 0 0 0
31 0 0 0 0 0 0
32 0 0 0 0 0 0
33 0 0 0 0 0 0
34 0 0 0 0 0 0
35 0 0 0 0 0 0
36 0 0 0 0 0 0
37 0 0 0 0 0 0
38 0 0 0 0 0 0
39 0 0 0 0 0 0
40 0 0 0 0 0 0
41 0 0 0 0 0 0
42 0 0 0 0 0 0
43 0 0 0 0 0 0
44 0 0 0 0 0 0
45 0 0 0 0 0 0
46 0 0 0 0 0 0
47 0 0 0 0 0 0
48 0 0 0 0 0 0
49 0 0 0 0 0 0
50 0 0 0 0 0 0
51 0 0 0 0 0 0
52 0 0 0 0 0 0
53 0 0 0 0 0 0
54 0 0 0 0 0 0
55 0 0 0 0 0 0
56 0 0 0 0 0 0
57 0 0 0 0 0 0
58 0 0 0 0 0 0
59 0 0 0 0 0 0
60 0 0 0 0 0 0
61 0 0 0 0 0 0
62 0 0 0 0 0 0
63 0 0 0 0 0 0
64 0 0 0 0 0 0
65 0 0 0 0 0 0
66 0 0 0 0 0 0
67 0 0 0 0 0 0
68 0 0 0 0 0 0
69 0 0 0 0 0 0
70 0 0 0 0 0 0
71 0 0 0 0 0 0
72 0 0 0 0 0 0
73 0 0 0 0 0 0
74 0 0 0 0 0 0
75 0 0 0 0 0 0
76 0 0 0 0 0 0
77 0 0 0 0 0 0
78 0 0 0 0 0 0
79 0 0 0 0 0 0
80 0 0 0 0 0 0
81 0 0 0 0 0 0
82 0 0 0 0 0 0
83 0 0 0 0 0 0
84 0 0 0 0 0 0
85 0 0 0 0 0 0
86 0 0 0 0 0 0
87 0 0 0 0 0 0
88 0 0 0 0 0 0
89 0 0 0 0 0 0
90 0 0 0 0 0 0
91 0 0 0 0 0 0
92 0 0 0 0 0 0
93 0 0 0 0 0 0
94 0 0 0 0 0 0
95 0 0 0 0 0 0
96 0 0 0 0 0 0
97 0 0 0 0 0 0
98 0 0 0 0 0 0
99 0 0 0 0 0 0
100 0 0 0 0 0 0
101 0 0 0 0 0 0
102 0 0 0 0 0 0
103 0 0 0 0 0 0
104 0 0 0 0 0 0
105 0 0 0 0 0 0
106 0 0 0 0 0 0
107 0 0 0 0 0 0
108 0 0 0 0 0 0
109 0 0 0 0 0 0
110 0 0 0 0 0 0
111 0 0 0 0 0 0
112 0 0 0 0 0 0
113 0 0 0 0 0 0
114 0 0 0 0 0 0
115 0 0 0 0 0 0
116 0 0 0 0 0 0
117 0 0 0 0 0 0
118 0 0 0 0 0 0
119 0 0 0 0 0 0
120 0 0 0 0 0 0
121 0 0 0 0 0 0
122 0 0 0 0 0 0
123 0 0 0 0 0 0
124 0 0 0 0 0 0
125 0 0 0 0 0 0
126 0 0 0 0 0 0
127 0 0 0 0 0 0
128 0 0 0 0 0 0
129 0 0 0 0 0 0
130 0 0 0 0 0 0
131 0 0 0 0 0 0
132 0 0 0 0 0 0
133 0 0 0 0 0 0
134 0 0 0 0 0 0
135 0 0 0 0 0 0
136 0 0 0 0 0 0
137 0 0 0 0 0 0
138 0 0 0 0 0 0
139 0 0 0 0 0 0
140 0 0 0 0 0 0
141 0 0 0 0 0 0
142 0 0 0 0 0 0
143 0 0 0 0 0 0
144 0 0 0 0 0 0
145 0 0 0 0 0 0
146 0 0 0 0 0 0
147 0 0 0 0 0 0
148 0 0 0 0 0 0
149 0 0 0 0 0 0
150 0 0 0 0 0 0
151 0 0 0 0 0 0
152 0 0 0 0 0 0
153 0 0 0 0 0 0
154 0 0 0 0 0 0
155 0 0 0 0 0 0
156 0 0 0 0 0 0
157 0 0 0 0 0 0
158 0 0 0 0 0 0
159 0 0 0 0 0 0
160 0 0 0 0 0 0
161 0 0 0 0 0 0
162 0 0 0 0 0 0
163 0 0 0 0 0 0
164 0 0 0 0 0 0
165 0 0 0 0 0 0
166 0 0 0 0 0 0
167 0 0 0 0 0 0
168 0 0 0 0 0 0
169 0 0 0 0 0 0
170 0 0 0 0 0 0
171 0 0 0 0 0 0
172 0 0 0 0 0 0
173 0 0 0 0 0 0
174 0 0 0 0 0 0
175 0 0 0 0 0 0
176 0 0 0 0 0 0
177 0 0 0 0 0 0
178 0 0 0 0 0 0
179 0 0 0 0 0 0
180 0 0 0 0 0 0
181 0 0 0 0 0 0
182 0 0 0 0 0 0
183 0 0 0 0 0 0
184 0 0 0 0 0 0
185 0 0 0 0 0 0
186 0 0 0 0 0 0
187 0 0 0 0 0 0
188 0 0 0 0 0 0
189 0 0 0 0 0 0
190 0 0 0 0 0 0
191 0 0 0 0 0 0
192 0 0 0 0 0 0
193 0 0 0 0 0 0
194 0 0 0 0 0 0
195 0 0 0 0 0 0
196 0 0 0 0 0 0
197 0 0 0 0 0 0
198 0 0 0 0 0 0