/*--------------------------------*- C++ -*----------------------------------*\
| =========                 |                                                 |
| \\      /  F ield         | OpenFOAM: The Open Source CFD Toolbox           |
|  \\    /   O peration     | Version:  3.0.1                                 |
|   \\  /    A nd           | Web:      www.OpenFOAM.org                      |
|    \\/     M anipulation  |                                                 |
\*---------------------------------------------------------------------------*/
FoamFile
{
    version     2.0;
    format      ascii;
    class       volScalarField;
    location    "0.1";
    object      p;
}
// * * * * * * * * * * * * * * * * * * * * * * * * * * * * * * * * * * * * * //

dimensions      [0 2 -2 0 0 0 0];

internalField   nonuniform List<scalar> 
125
(
-0.056303706
-0.011348674
-0.04426112
-0.096043545
-0.15040477
-0.053257639
-0.041717708
-0.05908526
-0.086132734
-0.10967243
-0.053574484
-0.053052949
-0.062363137
-0.07559218
-0.085048085
-0.053884658
-0.056038449
-0.061435547
-0.067885572
-0.071634596
-0.053886295
-0.056189945
-0.059459365
-0.062692825
-0.064142295
-0.03623041
-0.062331966
-0.092068179
-0.13980043
-0.33665881
-0.047126539
-0.057531075
-0.078205901
-0.10942948
-0.15570878
-0.051625291
-0.058255604
-0.070515606
-0.086296324
-0.10028052
-0.053371781
-0.058072424
-0.065120224
-0.072843281
-0.077695515
-0.05382987
-0.05714397
-0.061234939
-0.065059493
-0.066797791
-0.023158723
-0.055579563
-0.087146176
-0.13400276
-0.22704758
-0.038163341
-0.057541918
-0.080583106
-0.11048108
-0.14980313
-0.047847216
-0.058715914
-0.072835876
-0.089126183
-0.10419196
-0.05203412
-0.058487956
-0.066648714
-0.074988466
-0.080618896
-0.053397798
-0.057465425
-0.062149773
-0.066362167
-0.068412117
0.0015324648
-0.055280737
-0.084306147
-0.10372664
-0.16269061
-0.02754105
-0.054657983
-0.077279688
-0.099955504
-0.13033778
-0.04425636
-0.057322232
-0.071472203
-0.085960885
-0.099289422
-0.050816114
-0.057985937
-0.066302353
-0.074310914
-0.07978162
-0.052959945
-0.057332798
-0.062170997
-0.066398127
-0.068525371
-0.024846962
-0.03986016
-0.075990381
-0.099193783
-0.1457639
-0.037052114
-0.052982264
-0.072731376
-0.091984992
-0.11524523
-0.046681698
-0.056866983
-0.069143091
-0.08158476
-0.092658803
-0.051272915
-0.057679661
-0.065206595
-0.072406664
-0.077353982
-0.052975023
-0.057131626
-0.061695552
-0.0656766
-0.067750746
)
;

boundaryField
{
    movingWall
    {
        type            zeroGradient;
    }
    CPLReceiveMD
    {
        type            zeroGradient;
    }
    streamwiseIn
    {
        type            cyclic;
    }
    streamwiseOut
    {
        type            cyclic;
    }
    front
    {
        type            cyclic;
    }
    back
    {
        type            cyclic;
    }
    procBoundary19to1throughback
    {
        type            processorCyclic;
        value           nonuniform List<scalar> 
25
(
-0.039511765
-0.043947463
-0.049408855
-0.052167827
-0.053190586
-0.064926801
-0.056732252
-0.057369441
-0.057593047
-0.056959521
-0.068627646
-0.068965913
-0.066992317
-0.064014298
-0.061062376
-0.076423971
-0.083162156
-0.077330409
-0.070335689
-0.064695979
-0.11728272
-0.10355456
-0.087372965
-0.075017162
-0.066748424
)
;
    }
    procBoundary19to10
    {
        type            processor;
        value           nonuniform List<scalar> 
25
(
-0.055155913
0.12055308
-0.011035147
-0.064366944
-0.095638429
-0.053098371
-0.015992542
-0.041839008
-0.067000644
-0.083607492
-0.053153702
-0.046369306
-0.054507324
-0.065819073
-0.073400734
-0.053440583
-0.053605047
-0.057745167
-0.063107631
-0.066369988
-0.053525456
-0.055062196
-0.057657759
-0.060374449
-0.06170835
)
;
    }
    procBoundary19to18
    {
        type            processor;
        value           nonuniform List<scalar> 
25
(
-0.097999835
-0.067681654
-0.056469908
-0.053030763
-0.052145532
-0.031034378
-0.045911474
-0.049572615
-0.050832826
-0.051420154
0.0097032131
-0.02572308
-0.042248286
-0.048274751
-0.050499396
0.20291846
0.007433948
-0.03533922
-0.046389053
-0.049822625
0.00073480002
-0.026282656
-0.041223512
-0.047327746
-0.049867842
)
;
    }
    procBoundary19to20
    {
        type            processor;
        value           nonuniform List<scalar> 
25
(
-0.11864219
-0.097159647
-0.07968583
-0.068654147
-0.062205696
-0.18342918
-0.12825252
-0.09272752
-0.074001208
-0.064456048
-0.32297447
-0.17105177
-0.10607053
-0.078655185
-0.066319828
-0.27398202
-0.15509608
-0.10285234
-0.078553659
-0.066717172
-0.17253821
-0.1272003
-0.095078617
-0.07650463
-0.066268284
)
;
    }
    procBoundary19to22
    {
        type            processor;
        value           nonuniform List<scalar> 
25
(
-0.053687759
-0.055561371
-0.057613862
-0.059299297
-0.059801462
-0.053756877
-0.056056651
-0.058494629
-0.060451145
-0.061044601
-0.053650943
-0.056288286
-0.059022921
-0.061188887
-0.061893194
-0.053482539
-0.056278705
-0.059125089
-0.061358259
-0.062131125
-0.053408659
-0.05616205
-0.058938471
-0.061111217
-0.061913549
)
;
    }
}


// ************************************************************************* //
