/*--------------------------------*- C++ -*----------------------------------*\
| =========                 |                                                 |
| \\      /  F ield         | OpenFOAM: The Open Source CFD Toolbox           |
|  \\    /   O peration     | Version:  3.0.1                                 |
|   \\  /    A nd           | Web:      www.OpenFOAM.org                      |
|    \\/     M anipulation  |                                                 |
\*---------------------------------------------------------------------------*/
FoamFile
{
    version     2.0;
    format      ascii;
    class       surfaceScalarField;
    location    "0.1";
    object      phi;
}
// * * * * * * * * * * * * * * * * * * * * * * * * * * * * * * * * * * * * * //

dimensions      [0 3 -1 0 0 0 0];

internalField   nonuniform List<scalar> 
300
(
0.13010057
-0.0060802079
-0.040099134
0.23095613
0.060690579
0.10183347
0.17216515
0.029614089
0.095513996
0.16786611
-0.019815375
0.087439051
-0.081418949
0.37194791
-0.023006215
0.0006342598
-0.012259019
0.034761014
0.022674254
0.031622761
0.054101091
0.0065537967
0.03822747
0.047069181
-0.021080518
0.046573827
-0.049253911
0.092019079
-0.0010388742
0.00061939945
-0.0038973055
0.018614512
0.005973419
0.010403298
0.026451204
-0.0018548527
0.01630042
0.018903348
-0.015415297
0.021401749
-0.026832136
0.030454023
0.0043067392
2.5497419e-06
-0.0010251158
0.010790736
0.00030294001
0.004067512
0.012896419
-0.003953202
0.0073680923
0.0074953556
-0.01038764
0.009913527
-0.014987991
0.012119353
0.0046045552
-0.00011241904
0.0065360594
0.0019083062
0.006464857
0.0035511811
0.0028982199
0.0047331606
0.0053107334
0.18000306
0.021768594
-0.026150812
0.30486836
-0.009578672
-0.013457968
0.43787574
-0.027696411
-0.0098058192
0.59760861
-0.060728178
-0.011575189
-0.36144199
-0.2187919
0.020840704
0.0089951593
-0.017924987
0.041409834
0.0014507649
3.1668316e-05
0.062534907
-0.015378897
0.0047631831
0.09254268
-0.046274602
0.0021119204
-0.11082353
-0.011781557
0.013259662
0.0034930598
-0.0075544605
0.024516466
-0.00036784043
0.00092297607
0.03155629
-0.010793107
0.0046425656
0.027953523
-0.026910602
0.0056618309
-0.045187003
0.0078258159
0.009399101
0.00091561083
-0.0026744717
0.014092355
-0.0018578874
0.00083186689
0.015442583
-0.0077721837
0.0030577016
0.0097006301
-0.015570601
0.0042910729
-0.021801434
0.0058471651
0.0066253182
-0.00086364917
0.0081791951
0.00064340881
0.0076469909
0.0018301747
0.0034756013
0.002605823
0.003228951
0.18248237
0.029991557
-0.049332777
0.16574198
0.00392029
-0.00059965404
0.17469012
-0.013124719
-0.0056809755
0.27061205
-0.047021375
-0.060490595
-0.1543911
-0.12853954
0.038782887
0.019366798
-0.021228104
0.046109198
0.0023456466
-0.0057641464
0.059817129
-0.015495182
-0.0066024933
0.078644333
-0.042707077
-0.021039163
-0.09122674
-0.038915478
0.021734165
0.0083748281
-0.0071775251
0.028237483
-0.00045693749
-0.002784889
0.03257723
-0.012375887
-0.0027243006
0.030122708
-0.028278196
-0.0063255379
-0.047155173
-0.009798166
0.012904705
0.00272768
-0.0024350297
0.016318617
-0.0020458759
-0.0010029476
0.016676711
-0.0089993994
-0.00069112114
0.011257758
-0.017255377
-0.0013528391
-0.024419103
-0.0016718801
0.00813222
-0.0008754366
0.0093660801
-0.00026492825
0.008422879
4.3000702e-05
0.0040989407
7.2720515e-05
0.00022731024
0.29450608
0.058128375
0.052695177
0.32589517
-0.0012322562
-0.030786453
0.35086106
-0.014041206
-0.016618306
0.30698854
-0.007562702
-0.0090863104
-0.064693564
-0.033883033
0.054280927
0.03343966
0.019005027
0.045313028
0.0053286885
-0.0033476707
0.045434901
-0.011614257
-0.0090941368
0.060801761
-0.027988991
-0.015942391
-0.06209851
-0.030184244
0.026128239
0.013122701
0.0048460832
0.02829837
0.0013262166
-0.00091010624
0.028975964
-0.010341398
-0.0046563292
0.026650972
-0.023300866
-0.0087499492
-0.039019892
-0.013257696
0.014336575
0.0042888007
0.00091238571
0.016630486
-0.0013070838
-0.00061234621
0.016015178
-0.0082644287
-0.0021903134
0.010938862
-0.015828099
-0.0038068303
-0.022517061
-0.0048533612
0.008742563
2.9810522e-05
0.0096739778
-0.00040235945
0.0084526552
-0.00095053399
0.0042536014
-0.0014424864
-0.0015487127
0.22991754
0.024399423
0.12292108
0.026206429
0.12748576
-0.0065123373
0.17824457
-0.014413659
-0.06098985
0.031909192
0.019257469
0.039507457
0.0077631578
0.038530642
-0.0071763051
0.046530585
-0.020798311
-0.045167007
0.0203681
0.0091829146
0.024550474
0.0016245256
0.02488214
-0.007874844
0.022142984
-0.0183577
-0.03061321
0.012811074
0.0034045943
0.01505205
-0.0010972666
0.014398566
-0.0070242901
0.0098923574
-0.013462994
-0.019210589
0.0083101667
0.0091256746
0.0079606619
0.0041474244
)
;

boundaryField
{
    movingWall
    {
        type            calculated;
        value           nonuniform 0();
    }
    CPLReceiveMD
    {
        type            calculated;
        value           uniform 0;
    }
    streamwiseIn
    {
        type            cyclic;
        value           nonuniform 0();
    }
    streamwiseOut
    {
        type            cyclic;
        value           nonuniform 0();
    }
    front
    {
        type            cyclic;
        value           nonuniform 0();
    }
    back
    {
        type            cyclic;
        value           nonuniform 0();
    }
    procBoundary19to1throughback
    {
        type            processorCyclic;
        value           nonuniform List<scalar> 
25
(
0.029318838
0.013783213
0.0054520567
0.001789065
0.00043103126
0.050039187
0.0074894824
0.0010031158
-0.00017351343
-0.00034417803
-0.01471135
-0.007531157
-0.0043012749
-0.0023842415
-0.0012661163
-0.045484997
-0.017640087
-0.0085075044
-0.0041414568
-0.0019609687
-0.056912105
-0.023379376
-0.010571245
-0.0046734496
-0.0020044843
)
;
    }
    procBoundary19to10
    {
        type            processor;
        value           nonuniform List<scalar> 
25
(
-0.0022879043
-0.26337094
-0.066395999
-0.063321636
-0.10943402
-0.00031581047
-0.05141097
-0.034479953
-0.038258096
-0.052132552
-0.0008412694
-0.013360552
-0.015707258
-0.019542989
-0.023292819
-0.00088829731
-0.0048655942
-0.0073793961
-0.0095546144
-0.010528302
-0.00072178309
-0.0022554496
-0.0036030705
-0.0046365612
-0.0048678014
)
;
    }
    procBoundary19to18
    {
        type            processor;
        value           nonuniform List<scalar> 
25
(
-0.08158794
0.028790469
0.005786394
-0.0017072946
-0.0034785205
-0.21571659
-0.0024802358
-0.0041054728
-0.0050766177
-0.0048166308
-0.18932698
-0.024891866
-0.011192863
-0.0075162516
-0.0057939098
-0.4546253
-0.069892572
-0.017822158
-0.0088505112
-0.0062714093
-0.23095506
-0.021565233
-0.010911818
-0.007887808
-0.0062109441
)
;
    }
    procBoundary19to20
    {
        type            processor;
        value           nonuniform List<scalar> 
25
(
-0.013214405
-0.025000274
-0.010721062
-0.0059590987
-0.0038715123
1.5498404
-0.054416803
-0.015101658
-0.0073871084
-0.0046819283
0.33472109
0.042526059
0.0037520946
-0.0039281057
-0.0041836166
0.27686979
0.049493963
0.0071163236
-0.0024577204
-0.0036158528
0.26226874
0.023945492
0.0048333052
-0.0017003278
-0.0029645021
)
;
    }
    procBoundary19to22
    {
        type            processor;
        value           nonuniform List<scalar> 
25
(
-0.00039723127
-0.0012572064
-0.0036913852
-0.0067880991
-0.0086833189
-0.00014620974
-0.0021749587
-0.0054812902
-0.0092181515
-0.011508905
0.00050635869
-0.0023545973
-0.0062544927
-0.010348219
-0.013040781
0.0010455658
-0.0021085162
-0.0060928137
-0.010081563
-0.012791411
0.00086762593
-0.0019397088
-0.0055155087
-0.009132803
-0.011677094
)
;
    }
}


// ************************************************************************* //
