/*--------------------------------*- C++ -*----------------------------------*\
| =========                 |                                                 |
| \\      /  F ield         | OpenFOAM: The Open Source CFD Toolbox           |
|  \\    /   O peration     | Version:  3.0.1                                 |
|   \\  /    A nd           | Web:      www.OpenFOAM.org                      |
|    \\/     M anipulation  |                                                 |
\*---------------------------------------------------------------------------*/
FoamFile
{
    version     2.0;
    format      ascii;
    class       volVectorField;
    location    "0.1";
    object      U;
}
// * * * * * * * * * * * * * * * * * * * * * * * * * * * * * * * * * * * * * //

dimensions      [0 1 -1 0 0 0 0];

internalField   nonuniform List<vector> 
125
(
(0.00018483849 -7.5980473e-06 -4.7260935e-05)
(0.000668126 7.5906522e-05 0.00045651234)
(0.00033941856 3.7029867e-05 0.00020245248)
(0.0004807504 -2.4781003e-05 0.00018853044)
(0.00013721102 -0.00010183502 0.00060173176)
(-6.48115e-05 -6.8064446e-06 -1.4928543e-05)
(1.4741482e-05 0.00010424321 0.00010384796)
(0.00011106668 4.5222546e-05 9.0917387e-05)
(0.0001265189 -5.1134125e-05 0.000106072)
(2.7587131e-05 -0.00016339706 0.00018025325)
(-8.545711e-06 1.5664093e-06 -3.8189e-06)
(2.1967995e-05 3.5798182e-05 2.9717465e-05)
(5.634454e-05 5.8709381e-06 4.0020803e-05)
(5.6710299e-05 -4.5622217e-05 5.1192931e-05)
(1.0235244e-05 -9.5097036e-05 6.719941e-05)
(7.5132742e-06 7.7704822e-07 -1.7024645e-07)
(1.8871676e-05 7.8376075e-06 1.1169998e-05)
(2.9614257e-05 -7.2648297e-06 1.8438424e-05)
(2.5497074e-05 -3.2253281e-05 2.4339751e-05)
(1.9236081e-06 -5.2268001e-05 2.8314526e-05)
(1.0102406e-05 -4.9379214e-07 7.6210264e-07)
(1.3926073e-05 -1.195764e-06 5.2060708e-06)
(1.6253644e-05 -9.5574251e-06 8.9445651e-06)
(1.1707114e-05 -2.1468847e-05 1.1714125e-05)
(-1.2152124e-06 -2.9585877e-05 1.27252e-05)
(0.00049290176 2.7217245e-05 -8.2801254e-05)
(0.00036401182 -1.196459e-05 0.0001105107)
(0.0011961707 -3.462615e-05 0.0001071361)
(0.0013204605 -7.5972025e-05 9.4846894e-05)
(0.00042172744 -0.00045185968 0.00019149179)
(2.915017e-05 3.8463498e-05 -3.7733824e-05)
(7.7751349e-05 -1.0154649e-05 3.9561089e-05)
(0.00012999294 -5.3853905e-05 5.3745113e-05)
(0.00019393211 -0.00013380677 6.0871509e-05)
(4.7135584e-05 -0.00059043104 0.00010032789)
(2.1704187e-05 1.5611439e-05 -1.4316921e-05)
(4.7220316e-05 1.3497393e-06 1.4157848e-05)
(7.0097476e-05 -3.2718736e-05 2.6182104e-05)
(7.4410798e-05 -9.146957e-05 3.3835478e-05)
(1.6079031e-05 -0.00019503592 4.7861294e-05)
(1.809349e-05 5.5080312e-06 -4.6254042e-06)
(2.9364989e-05 -2.783464e-06 6.1245823e-06)
(3.6923301e-05 -2.3205899e-05 1.3033878e-05)
(3.1437692e-05 -5.3095576e-05 1.7758359e-05)
(2.8974163e-06 -8.3709794e-05 2.2462349e-05)
(1.4301907e-05 9.6048521e-07 -1.2203093e-06)
(1.8506372e-05 -5.0421418e-06 3.1900643e-06)
(1.9785302e-05 -1.6566456e-05 6.7277038e-06)
(1.3906859e-05 -3.0982629e-05 9.1751245e-06)
(-1.5058485e-06 -4.162975e-05 1.0676389e-05)
(0.00060718375 3.7510586e-05 -9.4424254e-05)
(0.00030419709 4.9013155e-06 -1.7607694e-05)
(0.00056480281 -1.6415252e-05 -1.9376987e-05)
(0.0003857585 -5.8803698e-05 -9.0142079e-05)
(0.00085922547 -0.00019309398 -0.00043414224)
(7.9655228e-05 6.1719247e-05 -4.8962992e-05)
(0.00010608221 7.8348719e-06 -7.1817139e-06)
(0.00013243725 -3.5785305e-05 -2.3135894e-06)
(0.00017305699 -0.0001121929 -2.3681928e-05)
(0.00015152392 -0.00030712306 -6.3423683e-05)
(4.1165139e-05 3.4674834e-05 -1.8422682e-05)
(6.2466985e-05 2.3616691e-06 -2.3329027e-06)
(7.6022185e-05 -3.4840304e-05 2.3933259e-06)
(7.8389478e-05 -8.8735373e-05 -8.3553764e-07)
(4.2362191e-05 -0.00017296259 -2.4740128e-06)
(2.55274e-05 1.387366e-05 -6.3893965e-06)
(3.6530958e-05 -3.1301758e-06 -2.1564177e-07)
(4.1248033e-05 -2.671923e-05 2.9569179e-06)
(3.4925545e-05 -5.6913634e-05 3.6715112e-06)
(9.1694914e-06 -8.9452906e-05 5.218012e-06)
(1.7407819e-05 4.0400592e-06 -2.1746583e-06)
(2.1874086e-05 -5.5016899e-06 4.7252535e-07)
(2.2238704e-05 -1.9066917e-05 2.3411127e-06)
(1.56558e-05 -3.4501536e-05 3.3479558e-06)
(-1.0317548e-07 -4.6817409e-05 4.3203339e-06)
(0.00087702459 7.2724195e-05 4.2118687e-06)
(0.00088695826 -1.5304681e-06 -3.923467e-05)
(0.00078789539 -1.7553475e-05 -2.7889164e-05)
(0.0010890663 -9.4670117e-06 -8.6975971e-05)
(0.00047778049 -8.0924198e-05 -0.000203125)
(0.00015528664 0.00011451163 -2.7780026e-06)
(0.0001245125 5.1285556e-06 -1.1396895e-05)
(0.00011340895 -3.2074225e-05 -1.9626163e-05)
(0.00013286777 -4.4455558e-05 -4.6236192e-05)
(0.0001378649 -0.0001585465 -8.6389553e-05)
(5.4954731e-05 5.8185041e-05 -2.9143278e-06)
(6.8036352e-05 8.3158124e-06 -4.6209366e-06)
(7.1594821e-05 -2.7448228e-05 -9.2287519e-06)
(6.9543471e-05 -6.4116124e-05 -1.884924e-05)
(4.2229931e-05 -0.0001263942 -2.8828642e-05)
(2.8987124e-05 2.1756055e-05 -1.9036953e-06)
(3.8711304e-05 2.1964022e-08 -2.020028e-06)
(4.0810454e-05 -2.3258112e-05 -3.6031019e-06)
(3.3698786e-05 -4.8912082e-05 -6.4515823e-06)
(1.060907e-05 -7.6915447e-05 -8.1598012e-06)
(1.876809e-05 6.6642033e-06 -1.0574612e-06)
(2.3022143e-05 -4.2710846e-06 -8.3476103e-07)
(2.2660733e-05 -1.7946827e-05 -1.1352425e-06)
(1.588608e-05 -3.2385844e-05 -1.7131977e-06)
(7.9990571e-07 -4.4131042e-05 -1.6530975e-06)
(0.00087754836 3.051783e-05 0.00010257512)
(0.00035111493 3.2757797e-05 2.408196e-05)
(0.00017852956 -8.138844e-06 -3.9158517e-05)
(0.00054947458 -1.8021063e-05 -6.8214039e-05)
(0.00023403048 -7.6258556e-05 -0.00011349436)
(6.6942848e-05 5.4590431e-05 4.1015637e-05)
(8.9253811e-05 4.2467525e-05 5.186475e-06)
(9.751348e-05 -1.7111535e-05 -2.0782756e-05)
(0.00010637817 -4.4023386e-05 -4.1981479e-05)
(8.8052628e-05 -0.00013272638 -6.6955358e-05)
(3.9107112e-05 3.5549141e-05 1.2880204e-05)
(5.6152565e-05 1.1738538e-05 1.1852194e-07)
(6.1793861e-05 -1.8817241e-05 -1.1197733e-05)
(5.8789609e-05 -4.8950758e-05 -2.1573997e-05)
(3.3736092e-05 -9.4732824e-05 -2.9789178e-05)
(2.587537e-05 1.5730526e-05 3.3785175e-06)
(3.4831551e-05 6.5599987e-07 -9.819956e-07)
(3.6816479e-05 -1.862572e-05 -5.7187696e-06)
(3.0368846e-05 -3.9777592e-05 -9.9366119e-06)
(1.0246414e-05 -6.2277361e-05 -1.1910352e-05)
(1.8151687e-05 5.3379704e-06 5.7634465e-07)
(2.1796305e-05 -3.7979159e-06 -9.3337343e-07)
(2.1360267e-05 -1.5675686e-05 -2.7713515e-06)
(1.5137945e-05 -2.824469e-05 -4.2551145e-06)
(1.4810893e-06 -3.8607197e-05 -4.4424801e-06)
)
;

boundaryField
{
    movingWall
    {
        type            fixedValue;
        value           nonuniform 0();
    }
    CPLReceiveMD
    {
        type            fixedValue;
        value           nonuniform List<vector> 
25
(
(0.79969729 0 0)
(0.83018446 0 0)
(0.88913371 0 0)
(0.46489681 0 0)
(1.554339 0 0)
(1.3983752 0 0)
(0.44874375 0 0)
(0.28826075 0 0)
(1.3466061 0 0)
(0.44631558 0 0)
(0.25499167 0 0)
(2.0078287 0 0)
(0.73806692 0 0)
(1.3349049 0 0)
(0.059581602 0 0)
(0.43135581 0 0)
(1.4212554 0 0)
(0.071357381 0 0)
(1.7888574 0 0)
(0.75078851 0 0)
(0.16134936 0 0)
(0.62156369 0 0)
(0.77534476 0 0)
(0.10459828 0 0)
(0.10083354 0 0)
)
;
    }
    streamwiseIn
    {
        type            cyclic;
    }
    streamwiseOut
    {
        type            cyclic;
    }
    front
    {
        type            cyclic;
    }
    back
    {
        type            cyclic;
    }
    procBoundary19to1throughback
    {
        type            processorCyclic;
        value           nonuniform List<vector> 
25
(
(0.00033506854 1.1112914e-05 -9.5997834e-05)
(3.6419442e-05 2.4765268e-05 4.3640078e-06)
(2.7827052e-05 2.0547914e-05 8.4766013e-06)
(2.2084077e-05 9.4521954e-06 3.8229462e-06)
(1.6833985e-05 3.128047e-06 1.1172947e-06)
(0.00082283227 -2.0438545e-05 1.9689437e-06)
(6.2733516e-05 -1.8847296e-05 -2.0285857e-06)
(4.395842e-05 2.1473402e-06 -6.234827e-07)
(2.9614017e-05 -1.0299314e-06 -7.5860543e-07)
(1.9674447e-05 -3.9428452e-06 -8.879656e-07)
(0.0010865819 8.4156198e-07 -3.59888e-05)
(6.6338573e-05 -4.0942051e-06 -1.7999513e-05)
(4.9902326e-05 -1.238424e-05 -1.0123863e-05)
(3.1855838e-05 -1.483173e-05 -5.7440817e-06)
(1.9338991e-05 -1.3531113e-05 -3.2286007e-06)
(0.00082424372 1.6799327e-05 -3.1927532e-05)
(8.6647666e-05 2.2182734e-06 -2.8158107e-05)
(5.0952015e-05 -3.2071253e-05 -1.7636212e-05)
(2.7507204e-05 -3.15932e-05 -9.6081526e-06)
(1.4214952e-05 -2.4203635e-05 -4.9387315e-06)
(0.00055562866 -3.4329249e-05 -9.3312787e-05)
(9.4545374e-05 -7.4785038e-05 -4.4693849e-05)
(3.6415621e-05 -7.1349184e-05 -2.2098015e-05)
(1.2117931e-05 -5.156875e-05 -1.0591082e-05)
(2.7039976e-06 -3.3805139e-05 -4.9720891e-06)
)
;
    }
    procBoundary19to10
    {
        type            processor;
        value           nonuniform List<vector> 
25
(
(0.0062968117 -5.1405116e-06 4.0096562e-06)
(-4.0937518e-05 0.00034092802 2.5858992e-05)
(0.00066617332 7.700974e-05 5.2862197e-05)
(0.00030092285 6.5803014e-06 0.00010169072)
(0.0002585316 -3.0080375e-05 0.00016551843)
(-0.00018430553 -5.0024648e-06 6.6549254e-06)
(-2.8132945e-05 0.00041686849 2.0340972e-05)
(0.00012756966 0.00010867871 3.9277227e-05)
(0.00010444137 3.6247606e-06 6.474734e-05)
(3.7722603e-05 -5.5597967e-05 8.9576351e-05)
(-3.6223819e-05 8.5313994e-07 5.0858099e-06)
(3.3806036e-06 9.4027731e-05 1.2757606e-05)
(4.8621961e-05 3.9760239e-05 2.3617664e-05)
(4.7232153e-05 -9.7373135e-06 3.5707196e-05)
(1.4812636e-05 -4.3097162e-05 4.3016832e-05)
(-8.347754e-07 9.2702862e-07 3.3962189e-06)
(1.0756319e-05 2.172793e-05 7.6062233e-06)
(2.3753548e-05 7.8703394e-06 1.3241547e-05)
(2.1561589e-05 -1.361677e-05 1.8578632e-05)
(4.4850403e-06 -2.9235584e-05 2.0384786e-05)
(6.8174967e-06 2.5135901e-08 2.1896439e-06)
(1.032391e-05 3.3848456e-06 4.4388923e-06)
(1.3277248e-05 -2.7064449e-06 7.193301e-06)
(1.0126224e-05 -1.2456442e-05 9.4654393e-06)
(2.9539635e-07 -1.9302686e-05 9.7433333e-06)
)
;
    }
    procBoundary19to18
    {
        type            processor;
        value           nonuniform List<vector> 
25
(
(0.00037679744 -7.5774648e-05 -0.00049116205)
(-2.1957681e-05 -0.00010380346 -0.00011129307)
(-1.2126994e-06 -3.6627328e-05 -2.8210961e-05)
(7.4434714e-06 -1.0810535e-05 -7.7582672e-06)
(9.238951e-06 -2.477815e-06 -2.2783397e-06)
(0.00053720541 3.7141574e-05 -0.00026912521)
(-1.7949211e-05 4.6294383e-05 -0.00010489546)
(3.0918499e-06 1.2302778e-05 -3.5553e-05)
(1.0233703e-05 4.6187895e-06 -1.1889543e-05)
(1.100324e-05 2.3695884e-06 -4.115349e-06)
(0.00014188037 8.8589632e-05 -0.00058399517)
(-1.7302018e-05 0.00012990283 -0.00013336366)
(2.7701643e-06 5.6378606e-05 -3.5583459e-05)
(1.0997354e-05 2.0627117e-05 -1.1109276e-05)
(1.1936003e-05 7.8446901e-06 -3.9936579e-06)
(-7.0481197e-05 0.00048806618 2.2392352e-05)
(-4.0137149e-05 0.0005949984 1.3983515e-06)
(-2.7197371e-06 0.0001345572 -2.5628891e-06)
(1.022342e-05 3.620859e-05 -2.3679979e-06)
(1.2212943e-05 1.1827324e-05 -1.5786289e-06)
(7.2877422e-05 6.75846e-05 0.00060025709)
(-2.0798349e-05 0.00010493664 0.00012406222)
(2.961828e-06 5.2612255e-05 2.7246203e-05)
(1.1955973e-05 2.1611377e-05 5.9210514e-06)
(1.286098e-05 9.2798729e-06 1.0007317e-06)
)
;
    }
    procBoundary19to20
    {
        type            processor;
        value           nonuniform List<vector> 
25
(
(-6.3233852e-05 -5.3702154e-05 0.00021112102)
(-0.0001125239 -9.7386796e-05 0.00011544927)
(-5.5641702e-05 -7.1265531e-05 5.2459317e-05)
(-3.0313945e-05 -4.3703732e-05 2.2752127e-05)
(-1.776393e-05 -2.5393145e-05 9.91288e-06)
(0.0080813344 -0.00013792568 0.00051043505)
(-0.00021308976 -0.00022673871 0.00018473182)
(-8.0517773e-05 -0.00013562904 6.5962406e-05)
(-3.9681378e-05 -7.0680436e-05 2.5004242e-05)
(-2.2040809e-05 -3.6310643e-05 1.0287161e-05)
(0.0010771169 -0.00037966141 0.00022608644)
(3.5892197e-05 -0.00054211509 6.7112871e-05)
(-4.3269099e-05 -0.00023099314 2.5315379e-05)
(-3.562812e-05 -9.9378977e-05 1.1383164e-05)
(-2.2600715e-05 -4.5881598e-05 5.65371e-06)
(0.00039263275 -0.0002970133 -0.00037575998)
(-1.2869676e-05 -0.00042762349 -0.00010962357)
(-4.0560138e-05 -0.00019135876 -2.7475318e-05)
(-3.2440688e-05 -9.0342104e-05 -5.3746597e-06)
(-2.1399328e-05 -4.4786806e-05 -1.289329e-07)
(0.00097384535 -0.00011333733 -0.00027100332)
(-2.7023073e-05 -0.00019364324 -8.5371062e-05)
(-3.3190468e-05 -0.0001267442 -2.7388324e-05)
(-2.6912064e-05 -7.2032591e-05 -8.4277508e-06)
(-1.8768056e-05 -3.9728195e-05 -2.3510227e-06)
)
;
    }
    procBoundary19to22
    {
        type            processor;
        value           nonuniform List<vector> 
25
(
(8.7953252e-06 -1.0758024e-06 7.6510286e-07)
(9.8080425e-06 -3.3900102e-06 2.7430106e-06)
(9.3411738e-06 -8.3045676e-06 4.5784127e-06)
(5.4686222e-06 -1.4090811e-05 5.8135642e-06)
(-2.0006899e-06 -1.7355495e-05 5.9874627e-06)
(1.068176e-05 -7.5714269e-07 -9.1552904e-08)
(1.1838048e-05 -5.0829859e-06 1.8186564e-06)
(1.0982814e-05 -1.1598596e-05 3.5243863e-06)
(6.3743982e-06 -1.8566773e-05 4.7256702e-06)
(-2.430598e-06 -2.251084e-05 5.2308169e-06)
(1.218102e-05 2.8377684e-07 -6.8567838e-07)
(1.3423982e-05 -5.5156785e-06 5.5541536e-07)
(1.2248188e-05 -1.313976e-05 1.5765465e-06)
(7.1750528e-06 -2.080231e-05 2.2682964e-06)
(-2.2105708e-06 -2.5429918e-05 2.7167199e-06)
(1.2888716e-05 1.2069366e-06 -6.0578414e-07)
(1.4100273e-05 -5.131048e-06 -3.1625402e-07)
(1.2695695e-05 -1.2949852e-05 -2.1187112e-07)
(7.5145717e-06 -2.0514592e-05 -1.9473669e-07)
(-1.7918929e-06 -2.5233503e-05 5.0410601e-08)
(1.2797581e-05 1.0158694e-06 -1.5763881e-07)
(1.3817895e-05 -4.781261e-06 -6.537562e-07)
(1.2369705e-05 -1.1925825e-05 -1.303055e-06)
(7.4373345e-06 -1.8884173e-05 -1.7544036e-06)
(-1.2370904e-06 -2.3382456e-05 -1.5844495e-06)
)
;
    }
}


// ************************************************************************* //
