/*--------------------------------*- C++ -*----------------------------------*\
| =========                 |                                                 |
| \\      /  F ield         | OpenFOAM: The Open Source CFD Toolbox           |
|  \\    /   O peration     | Version:  3.0.1                                 |
|   \\  /    A nd           | Web:      www.OpenFOAM.org                      |
|    \\/     M anipulation  |                                                 |
\*---------------------------------------------------------------------------*/
FoamFile
{
    version     2.0;
    format      ascii;
    class       volScalarField;
    location    "0.1";
    object      p;
}
// * * * * * * * * * * * * * * * * * * * * * * * * * * * * * * * * * * * * * //

dimensions      [0 2 -2 0 0 0 0];

internalField   nonuniform List<scalar> 
125
(
-0.059315807
-0.080626486
-0.057678647
-0.033622893
-0.089010571
-0.055426863
-0.063809737
-0.059085898
-0.05639127
-0.07682336
-0.05372158
-0.05809547
-0.059266795
-0.061709664
-0.070264889
-0.053236489
-0.056265162
-0.058554995
-0.06124157
-0.065055384
-0.053135585
-0.055408845
-0.057456897
-0.059423761
-0.061154464
-0.038892511
-0.053015625
-0.052338792
-0.053678287
-0.076884771
-0.047064463
-0.052510095
-0.054858834
-0.059943261
-0.073015543
-0.05047676
-0.053778997
-0.056743793
-0.061189027
-0.067864211
-0.052016225
-0.05454266
-0.057164985
-0.060268541
-0.063529576
-0.052672095
-0.054685832
-0.056718249
-0.058715362
-0.060256619
-0.042199408
-0.023987337
-0.03569819
-0.061874912
-0.080745717
-0.046375224
-0.042545019
-0.048534788
-0.060519648
-0.071910977
-0.049939539
-0.050295587
-0.054211809
-0.060609845
-0.066651177
-0.051809706
-0.053350628
-0.056161736
-0.059781284
-0.062770482
-0.052637992
-0.054298739
-0.056335438
-0.058439263
-0.059847002
-0.054701635
-0.0010041793
-0.023110049
-0.055343905
-0.084173679
-0.050595713
-0.033581665
-0.043374529
-0.060233953
-0.073841739
-0.051540483
-0.047950346
-0.052916234
-0.061309419
-0.06784136
-0.052526492
-0.05299625
-0.056139019
-0.060454245
-0.063480935
-0.053010615
-0.054414617
-0.056582239
-0.058906864
-0.06024527
-0.055155913
0.12055308
-0.011035147
-0.064366944
-0.095638429
-0.053098371
-0.015992542
-0.041839008
-0.067000644
-0.083607492
-0.053153702
-0.046369306
-0.054507324
-0.065819073
-0.073400734
-0.053440583
-0.053605047
-0.057745167
-0.063107631
-0.066369988
-0.053525456
-0.055062196
-0.057657759
-0.060374449
-0.06170835
)
;

boundaryField
{
    movingWall
    {
        type            zeroGradient;
    }
    CPLReceiveMD
    {
        type            zeroGradient;
    }
    streamwiseIn
    {
        type            cyclic;
    }
    streamwiseOut
    {
        type            cyclic;
    }
    front
    {
        type            cyclic;
    }
    back
    {
        type            cyclic;
    }
    procBoundary10to1
    {
        type            processor;
        value           nonuniform List<scalar> 
25
(
-0.072922016
-0.15403921
-0.065191309
0.037188137
-0.064652879
-0.062986561
-0.077141529
-0.062500256
-0.047132272
-0.07462358
-0.056832436
-0.061708309
-0.061368144
-0.061918068
-0.072019011
-0.054490702
-0.057717911
-0.059900808
-0.062453919
-0.066751134
-0.053655749
-0.056112124
-0.058283056
-0.060349459
-0.062256217
)
;
    }
    procBoundary10to9
    {
        type            processor;
        value           nonuniform List<scalar> 
25
(
-0.044796111
-0.04567834
-0.048272009
-0.049805834
-0.050723561
-0.021765573
-0.038701743
-0.04632993
-0.049327519
-0.050647629
-0.033018321
-0.04589344
-0.049111674
-0.050355319
-0.051066091
-0.086733407
-0.064296415
-0.055076045
-0.052347697
-0.051789659
-0.2277959
-0.09042948
-0.060857172
-0.053936067
-0.052331474
)
;
    }
    procBoundary10to11
    {
        type            processor;
        value           nonuniform List<scalar> 
25
(
-0.1274099
-0.097600316
-0.078152728
-0.067445842
-0.061544714
-0.10154605
-0.084650123
-0.072545826
-0.064985495
-0.060405895
-0.085665402
-0.076692674
-0.068924286
-0.063380608
-0.059683666
-0.08282544
-0.075271326
-0.06835617
-0.063199203
-0.059648365
-0.098943395
-0.082072672
-0.071743683
-0.064900702
-0.060491525
)
;
    }
    procBoundary10to13
    {
        type            processor;
        value           nonuniform List<scalar> 
25
(
-0.053085431
-0.054781016
-0.056333059
-0.057621469
-0.058396955
-0.052918876
-0.054475089
-0.055954076
-0.057199257
-0.057896492
-0.05293797
-0.054362572
-0.055812424
-0.057058962
-0.057688273
-0.053149576
-0.05452722
-0.056033997
-0.057346686
-0.057918784
-0.053451185
-0.054959959
-0.056663896
-0.058126326
-0.058650209
)
;
    }
    procBoundary10to19
    {
        type            processor;
        value           nonuniform List<scalar> 
25
(
-0.056303706
-0.011348674
-0.04426112
-0.096043545
-0.15040477
-0.053257639
-0.041717708
-0.05908526
-0.086132734
-0.10967243
-0.053574484
-0.053052949
-0.062363137
-0.07559218
-0.085048085
-0.053884658
-0.056038449
-0.061435547
-0.067885572
-0.071634596
-0.053886295
-0.056189945
-0.059459365
-0.062692825
-0.064142295
)
;
    }
}


// ************************************************************************* //
