/*--------------------------------*- C++ -*----------------------------------*\
| =========                 |                                                 |
| \\      /  F ield         | OpenFOAM: The Open Source CFD Toolbox           |
|  \\    /   O peration     | Version:  3.0.1                                 |
|   \\  /    A nd           | Web:      www.OpenFOAM.org                      |
|    \\/     M anipulation  |                                                 |
\*---------------------------------------------------------------------------*/
FoamFile
{
    version     2.0;
    format      ascii;
    class       surfaceScalarField;
    location    "0.1";
    object      phi;
}
// * * * * * * * * * * * * * * * * * * * * * * * * * * * * * * * * * * * * * //

dimensions      [0 3 -1 0 0 0 0];

internalField   nonuniform List<scalar> 
300
(
0.16595802
-0.0077720708
-0.040810255
0.1081486
-0.033607364
-0.055161257
0.10101424
0.0028111578
-0.010678629
0.15686921
0.045490731
0.040051618
-0.024343608
-0.02420104
0.016786665
-0.0034113236
-0.016718079
-0.0093988138
-0.011433277
-0.022599702
-0.0053373391
0.00036040274
-0.0084551044
0.040858016
0.010638216
0.0071061501
-0.013112634
-0.0076089039
0.008744505
-0.00097153079
-0.0064872108
0.0023449425
-0.0036643747
-0.0086316185
0.0048885629
-0.0014251691
-0.0050457111
0.01710494
-0.00093455712
-0.0010411683
-0.010420046
-0.0047999749
0.0060545784
-0.0002025574
-0.0024396247
0.0045790776
-0.0017144288
-0.003444275
0.0053731141
-0.0021976259
-0.0027797582
0.0076258129
-0.0036362744
-0.0019461181
-0.0078030289
-0.0030514131
0.0045431676
-0.00092676093
0.0040942549
-0.0014457794
0.0039330452
-0.0014771958
0.0034611859
-0.0014168955
-0.0017958357
0.078129119
0.016325717
0.0065920276
0.081978836
-0.0010056604
-0.058010878
0.099537428
0.005038517
-0.033246531
0.11069516
0.012516208
0.01637442
-0.007739806
0.0077076042
0.010902188
0.0068225281
-0.0013804611
0.0047214859
0.0025370368
-0.019930321
0.010195973
0.003768868
-0.012645553
0.026153012
0.0024904954
0.0011544639
-0.010303656
-0.0022085129
0.0066029885
0.0030788188
-0.001074786
0.0059296453
0.0015256492
-0.0069664536
0.0088901439
0.00084095082
-0.0050629855
0.013346813
-0.0018415959
-0.0011574247
-0.008670432
-0.0024250351
0.0050505055
0.0013113904
-0.00041303708
0.0052432744
0.00028520686
-0.0023836806
0.0062060691
-0.00089474039
-0.0020060164
0.0065206301
-0.003107434
-0.00097409808
-0.0065472322
-0.0015177176
0.0040242817
-6.8242716e-05
0.0040627492
-0.00077400167
0.0039931636
-0.00076539592
0.0030822777
-0.00055204764
-0.00081916468
0.1685578
0.0083506637
0.02497123
0.1194038
0.037076888
-0.045925073
0.085668134
0.025648166
-0.025165138
0.1177761
-0.0027030984
-0.013032789
-0.017653862
0.0068555479
-0.0076001146
0.0071288953
0.0084359224
0.01199946
0.015497796
-0.017933996
0.023972173
0.011351377
-0.010318416
0.02279777
0.00018025126
-0.00056523456
-0.010519443
0.0038653486
0.00071323928
0.0037399137
0.0032002001
0.0078302313
0.0061104254
-0.0046908232
0.012793008
0.0038994158
-0.0025898038
0.012079892
-0.0016586276
0.0014011086
-0.0077632296
0.0023819979
0.0030802004
0.0016561487
0.0014329094
0.0056201183
0.0018957151
-0.00070870792
0.0072371198
0.00034652587
-4.4955038e-05
0.0059771473
-0.0026852717
0.0013465626
-0.0058484185
0.0014215648
0.0033185562
0.00074499702
0.0040710975
0.00023172232
0.0042062355
0.00049370549
0.0028151951
0.00093537073
0.00079671042
0.067271118
-0.0081955103
0.00091818174
0.19893698
0.065109841
-0.24269118
0.15740652
0.040494701
-0.024111685
0.11653661
0.0097678311
0.018043474
-0.020644243
0.022948045
-0.033963087
0.0018898554
0.005004855
0.01960868
0.028741669
-0.03513926
0.033733441
0.019081357
-0.0030594618
0.027223247
0.0021487807
0.013537588
-0.011999895
0.019537866
-0.0071755923
0.0019708209
0.0032256532
0.0099267413
0.010094497
-0.0031563274
0.016781527
0.0064462031
0.0031848517
0.013060685
-0.0017112937
0.0090204923
-0.0087227825
0.011120151
0.00093882446
0.00096771131
0.0018277677
0.0062827911
0.002837074
0.0012183005
0.0086277913
0.00088601757
0.0032126545
0.0060520554
-0.0030959259
0.0053069505
-0.0064729101
0.0057784841
0.00280526
0.0010295303
0.0043327568
0.0012951743
0.0046475908
0.0021510148
0.002676491
0.0029351546
0.002926266
1.0962628
-0.0041104232
0.31748722
0.27271777
0.16537026
0.061566906
0.11483883
0.0052603403
-0.024051352
-0.073804227
0.00010938703
0.051658249
0.060727502
0.050331291
0.025341774
0.033219055
-0.0023634989
-0.02041393
-0.013559826
0.00057248927
0.016266056
0.014482919
0.022617562
0.0064780767
0.015159145
-0.0054237531
-0.014063702
0.00032893735
0.00016903195
0.0082765678
0.0029161117
0.010721765
-0.00017480842
0.0065231238
-0.0054676621
-0.0093254216
0.0030707848
0.0051883769
0.0054315268
0.0026674182
)
;

boundaryField
{
    movingWall
    {
        type            calculated;
        value           nonuniform 0();
    }
    CPLReceiveMD
    {
        type            calculated;
        value           uniform 0;
    }
    streamwiseIn
    {
        type            cyclic;
        value           nonuniform 0();
    }
    streamwiseOut
    {
        type            cyclic;
        value           nonuniform 0();
    }
    front
    {
        type            cyclic;
        value           nonuniform 0();
    }
    back
    {
        type            cyclic;
        value           nonuniform 0();
    }
    procBoundary10to1
    {
        type            processor;
        value           nonuniform List<scalar> 
25
(
0.027192201
0.14658187
0.015004554
-0.1413736
-0.048631889
0.015113834
0.026637632
0.0068287685
-0.018493628
-0.0043909701
0.0062193049
0.0072215833
0.0042027361
0.00042064398
0.0035101004
0.0025076705
0.002904863
0.0026918361
0.0024255801
0.0033920623
0.0010403161
0.0014067255
0.0016527204
0.0018519535
0.0022039836
)
;
    }
    procBoundary10to9
    {
        type            processor;
        value           nonuniform List<scalar> 
25
(
-0.14460884
-0.01952479
-0.010895913
-0.0068575862
-0.0048198637
-0.14188465
-0.016752026
-0.0082906947
-0.0053739703
-0.0040449679
-0.19531652
-0.0010040485
-0.001654003
-0.0029060874
-0.0031401339
-0.035012326
0.027365001
0.0070687122
-0.00035602458
-0.0024385002
-1.0935207
0.074259677
0.015398736
0.00099137716
-0.0023847846
)
;
    }
    procBoundary10to11
    {
        type            processor;
        value           nonuniform List<scalar> 
25
(
0.25404521
0.04159131
0.015770492
0.0047794241
0.00078129074
0.086498786
0.023272566
0.0093603445
0.0029113785
0.00029963954
0.13625332
0.0095945743
0.0045458444
0.0012207428
-0.0003253468
0.12103941
0.0028931548
0.0010308226
-0.00056230762
-0.0011923453
0.052451209
-0.0030552263
-0.0033122101
-0.0029369679
-0.0024320086
)
;
    }
    procBoundary10to13
    {
        type            processor;
        value           nonuniform List<scalar> 
25
(
-0.0001003384
-0.0012559306
-0.0022479812
-0.003604846
-0.0055154977
0.00049354956
-0.00042163268
-0.0015285695
-0.0030324335
-0.0047206235
0.00059991532
0.00012768162
-0.0010461087
-0.0027608157
-0.0043178259
0.00027791481
0.00022548807
-0.0010964067
-0.0031206333
-0.0046535455
-0.00014866838
-0.00020389835
-0.001987561
-0.0044966642
-0.0061172412
)
;
    }
    procBoundary10to19
    {
        type            processor;
        value           nonuniform List<scalar> 
25
(
0.0022879043
0.26337094
0.066395999
0.063321636
0.10943402
0.00031581047
0.05141097
0.034479953
0.038258096
0.052132552
0.0008412694
0.013360552
0.015707258
0.019542989
0.023292819
0.00088829731
0.0048655942
0.0073793961
0.0095546144
0.010528302
0.00072178309
0.0022554496
0.0036030705
0.0046365612
0.0048678014
)
;
    }
}


// ************************************************************************* //
