/*--------------------------------*- C++ -*----------------------------------*\
| =========                 |                                                 |
| \\      /  F ield         | OpenFOAM: The Open Source CFD Toolbox           |
|  \\    /   O peration     | Version:  3.0.1                                 |
|   \\  /    A nd           | Web:      www.OpenFOAM.org                      |
|    \\/     M anipulation  |                                                 |
\*---------------------------------------------------------------------------*/
FoamFile
{
    version     2.0;
    format      ascii;
    class       volVectorField;
    location    "0.1";
    object      U;
}
// * * * * * * * * * * * * * * * * * * * * * * * * * * * * * * * * * * * * * //

dimensions      [0 1 -1 0 0 0 0];

internalField   nonuniform List<vector> 
125
(
(0.00050282182 -9.7200496e-06 -8.5041473e-05)
(0.00019956748 -4.2033311e-05 -0.00025216472)
(0.0004488636 3.5159449e-06 -3.2112648e-05)
(0.00025723419 5.6888749e-05 0.00022678148)
(0.00028645355 -3.0427711e-05 3.0566225e-05)
(4.5428414e-05 -1.3983955e-05 -3.9804208e-05)
(9.1962151e-06 -5.632045e-05 -6.1578429e-05)
(-1.8407147e-05 3.9665745e-06 -1.9103574e-05)
(4.438522e-05 7.0183783e-05 3.202793e-05)
(0.00010303553 -4.6824757e-05 -4.0202229e-06)
(2.455352e-05 -5.4777253e-06 -1.5888376e-05)
(1.3859759e-05 -1.8865217e-05 -1.9822969e-05)
(9.0334728e-06 -1.3316737e-06 -1.1560962e-05)
(2.749325e-05 1.2122366e-05 -1.8225716e-06)
(4.1107479e-05 -2.9421818e-05 -1.0387333e-05)
(1.6140665e-05 -1.4668132e-06 -6.1858778e-06)
(1.3291344e-05 -6.7206806e-06 -7.9380561e-06)
(1.243875e-05 -4.5300647e-06 -6.8399446e-06)
(1.6250327e-05 -5.7198324e-06 -5.4641497e-06)
(1.5511798e-05 -2.2779214e-05 -8.0547191e-06)
(1.1703563e-05 -3.7831879e-07 -2.4594694e-06)
(1.0796494e-05 -3.7124244e-06 -3.5661012e-06)
(1.0034286e-05 -5.5580243e-06 -3.9126212e-06)
(9.2440891e-06 -9.053575e-06 -4.0861773e-06)
(5.3052453e-06 -1.6648247e-05 -5.000137e-06)
(0.00016678163 2.041157e-05 -4.2775013e-05)
(0.00019442517 -1.2540616e-06 -0.00014148357)
(0.00025743626 6.303625e-06 -5.4905532e-05)
(0.00028979083 1.5651822e-05 7.0548904e-05)
(0.00021274363 -9.6819935e-06 -2.0624986e-05)
(3.4539099e-05 2.8941504e-05 -2.2628271e-05)
(1.9523007e-05 1.9168157e-06 -5.3161429e-05)
(1.864403e-05 1.1014527e-05 -2.6377835e-05)
(4.5446591e-05 1.8764918e-05 1.0321101e-05)
(6.178987e-05 -2.2561325e-05 -1.227979e-05)
(1.8617127e-05 1.2377386e-05 -9.4544133e-06)
(1.5663795e-05 5.0777226e-06 -1.9499136e-05)
(1.8522325e-05 5.7612093e-06 -1.263746e-05)
(2.7799367e-05 8.0926579e-07 -2.7500032e-06)
(2.8391716e-05 -2.3717809e-05 -9.033909e-06)
(1.3030341e-05 5.486099e-06 -3.5664168e-06)
(1.2866617e-05 2.2628264e-06 -7.2857561e-06)
(1.4311667e-05 -6.909013e-08 -5.9830691e-06)
(1.5910509e-05 -6.1890917e-06 -3.651239e-06)
(1.17935e-05 -1.9022819e-05 -5.7126527e-06)
(1.0086225e-05 2.2553392e-06 -1.2439411e-06)
(1.0108596e-05 -1.713466e-07 -2.7749929e-06)
(1.0070391e-05 -3.0304435e-06 -2.8035424e-06)
(8.8456234e-06 -7.6761649e-06 -2.4615973e-06)
(4.2289562e-06 -1.4084901e-05 -3.2693051e-06)
(0.00054925032 1.0447766e-05 3.9461468e-05)
(0.00043657856 4.6359363e-05 -0.00012994702)
(0.00012186532 3.207112e-05 -7.3011161e-05)
(0.00025214097 -3.3745415e-06 4.1635646e-06)
(0.00032015556 -2.2073185e-05 1.8185392e-05)
(-8.2324067e-06 1.9357786e-05 8.8277313e-06)
(5.5088296e-06 6.57346e-05 -4.732104e-05)
(4.4940582e-05 4.6262144e-05 -2.8710214e-05)
(5.84734e-05 -3.150466e-06 7.2711213e-07)
(4.0497722e-05 -3.52239e-05 2.0661708e-06)
(2.9543453e-06 1.3584131e-05 2.659036e-06)
(1.0676728e-05 2.7010464e-05 -1.4571509e-05)
(2.5782572e-05 1.9063096e-05 -9.568652e-06)
(3.1096798e-05 -1.8499785e-06 3.0112353e-07)
(2.0786642e-05 -2.285468e-05 -5.688738e-08)
(7.4810043e-06 6.743659e-06 1.2754636e-06)
(1.0874692e-05 1.0003462e-05 -3.8658376e-06)
(1.6073267e-05 5.3038528e-06 -2.5648064e-06)
(1.6520743e-05 -5.4314264e-06 4.6434354e-07)
(8.9997357e-06 -1.7014611e-05 -1.2148099e-07)
(8.0725819e-06 2.8190929e-06 8.4615114e-07)
(9.2368931e-06 2.5271674e-06 -6.7801482e-07)
(1.0347681e-05 -8.7649784e-07 -3.4002885e-07)
(8.7783264e-06 -6.8087631e-06 4.7869151e-07)
(3.113456e-06 -1.270792e-05 -2.8570245e-08)
(0.00027784234 -1.0242145e-05 3.2379266e-05)
(0.00030176009 8.1436733e-05 -0.00036076952)
(0.00052902329 5.0640721e-05 -6.164713e-05)
(0.00022423825 1.2213004e-05 6.2444351e-06)
(0.0002916269 -2.5810846e-05 3.7229788e-05)
(-7.6667526e-05 -7.8807164e-06 1.6807798e-05)
(-1.7960043e-05 0.00011735721 -6.6381615e-05)
(6.6726481e-05 7.4493306e-05 -1.6738704e-05)
(7.6183858e-05 1.4900212e-05 1.6203245e-05)
(3.7649401e-05 -4.0812957e-05 2.9241762e-05)
(-1.7819819e-05 4.825116e-06 8.0351926e-06)
(3.4361209e-06 4.8532933e-05 -9.8161236e-06)
(3.3394966e-05 3.1906621e-05 7.3909231e-07)
(3.7311122e-05 5.464969e-07 1.3023255e-05)
(1.7618145e-05 -2.5905462e-05 1.687445e-05)
(1.6139681e-06 3.6732142e-06 4.0768087e-06)
(9.0263473e-06 1.6156321e-05 6.3562952e-07)
(1.8641848e-05 9.1595331e-06 3.9584362e-06)
(1.8353835e-05 -6.0115238e-06 8.3159107e-06)
(6.8642959e-06 -1.8994502e-05 8.9992822e-06)
(6.5531434e-06 1.5565652e-06 2.2185623e-06)
(8.922416e-06 3.824791e-06 1.9083443e-06)
(1.1227097e-05 -2.6588549e-07 3.3055789e-06)
(9.1570821e-06 -7.7721238e-06 4.8379111e-06)
(1.8561984e-06 -1.3908196e-05 4.653477e-06)
(0.0062968117 -5.1405116e-06 4.0096562e-06)
(-4.0937518e-05 0.00034092802 2.5858992e-05)
(0.00066617332 7.700974e-05 5.2862197e-05)
(0.00030092285 6.5803014e-06 0.00010169072)
(0.0002585316 -3.0080375e-05 0.00016551843)
(-0.00018430553 -5.0024648e-06 6.6549254e-06)
(-2.8132945e-05 0.00041686849 2.0340972e-05)
(0.00012756966 0.00010867871 3.9277227e-05)
(0.00010444137 3.6247606e-06 6.474734e-05)
(3.7722603e-05 -5.5597967e-05 8.9576351e-05)
(-3.6223819e-05 8.5313994e-07 5.0858099e-06)
(3.3806036e-06 9.4027731e-05 1.2757606e-05)
(4.8621961e-05 3.9760239e-05 2.3617664e-05)
(4.7232153e-05 -9.7373135e-06 3.5707196e-05)
(1.4812636e-05 -4.3097162e-05 4.3016832e-05)
(-8.347754e-07 9.2702862e-07 3.3962189e-06)
(1.0756319e-05 2.172793e-05 7.6062233e-06)
(2.3753548e-05 7.8703394e-06 1.3241547e-05)
(2.1561589e-05 -1.361677e-05 1.8578632e-05)
(4.4850403e-06 -2.9235584e-05 2.0384786e-05)
(6.8174967e-06 2.5135901e-08 2.1896439e-06)
(1.032391e-05 3.3848456e-06 4.4388923e-06)
(1.3277248e-05 -2.7064449e-06 7.193301e-06)
(1.0126224e-05 -1.2456442e-05 9.4654393e-06)
(2.9539635e-07 -1.9302686e-05 9.7433333e-06)
)
;

boundaryField
{
    movingWall
    {
        type            fixedValue;
        value           nonuniform 0();
    }
    CPLReceiveMD
    {
        type            fixedValue;
        value           nonuniform List<vector> 
25
(
(0.82774534 0 0)
(0.17692708 0 0)
(1.1449839 0 0)
(0.98177952 0 0)
(14.35733 0 0)
(0.40734741 0 0)
(0.32176383 0 0)
(0.90660974 0 0)
(0.76194499 0 0)
(0.13463363 0 0)
(1.1319484 0 0)
(0.51192853 0 0)
(0.053963488 0 0)
(0.78751191 0 0)
(0.40945285 0 0)
(0.35801714 0 0)
(0.45735753 0 0)
(0.27942267 0 0)
(0.14322174 0 0)
(0.17901933 0 0)
(0.10388273 0 0)
(0.18631953 0 0)
(0.52189555 0 0)
(0.44626775 0 0)
(0.34470774 0 0)
)
;
    }
    streamwiseIn
    {
        type            cyclic;
    }
    streamwiseOut
    {
        type            cyclic;
    }
    front
    {
        type            cyclic;
    }
    back
    {
        type            cyclic;
    }
    procBoundary10to1
    {
        type            processor;
        value           nonuniform List<vector> 
25
(
(0.00032452895 -2.4867842e-05 -5.5625836e-05)
(0.00019514135 -0.00019196677 0.00013176411)
(0.0040518884 -6.721783e-06 -5.0801857e-05)
(0.00032161514 0.00021051907 -5.1127628e-05)
(0.00051957054 2.4919078e-05 9.7941059e-05)
(6.054352e-05 -4.0253856e-05 -1.8185899e-05)
(-1.1639394e-06 -0.00023055107 1.515986e-05)
(-7.3895561e-05 -9.5533419e-06 -1.4977729e-05)
(3.0387215e-05 0.0002474825 -2.0586724e-05)
(0.00015664471 1.8407433e-05 -1.1768311e-06)
(2.6127816e-05 -2.1240949e-05 -7.7966334e-06)
(1.1336385e-05 -4.8562666e-05 -2.5019531e-06)
(5.2219364e-07 -6.5024226e-06 -9.0782138e-06)
(2.6625744e-05 3.830136e-05 -1.2744413e-05)
(5.3660045e-05 -1.9683311e-05 -1.2244055e-05)
(1.7274521e-05 -7.9428072e-06 -3.7154276e-06)
(1.3520684e-05 -1.3994041e-05 -3.7669559e-06)
(1.1837761e-05 -7.7174307e-06 -6.2131067e-06)
(1.7125284e-05 -3.925486e-06 -8.3198365e-06)
(1.8621374e-05 -2.4410015e-05 -9.410911e-06)
(1.2766744e-05 -2.9430927e-06 -1.8127945e-06)
(1.1561748e-05 -6.3784894e-06 -2.7012612e-06)
(1.0590467e-05 -7.6702493e-06 -4.0300775e-06)
(9.9331393e-06 -1.0618791e-05 -5.1848435e-06)
(6.0258917e-06 -1.9273721e-05 -5.8032441e-06)
)
;
    }
    procBoundary10to9
    {
        type            processor;
        value           nonuniform List<vector> 
25
(
(0.00028343638 2.2264029e-06 -7.7473546e-05)
(5.3788181e-05 8.7107721e-06 -3.5569941e-05)
(2.7159545e-05 1.0319338e-05 -1.2312279e-05)
(1.6842641e-05 6.1292498e-06 -3.6938765e-06)
(1.1815625e-05 3.7874949e-06 -8.8558281e-07)
(0.00066893347 4.2342119e-05 -2.936574e-05)
(5.41499e-05 6.1412586e-05 5.3902e-07)
(2.1002766e-05 2.6564242e-05 2.1000483e-06)
(1.3078289e-05 1.0793723e-05 1.3739047e-06)
(9.8433486e-06 5.0610342e-06 8.5598865e-07)
(0.00032576192 3.2145417e-05 0.00016234425)
(6.3640176e-06 4.0190858e-05 6.3986679e-05)
(7.1281156e-06 1.1154225e-05 2.1865462e-05)
(8.3013341e-06 4.8851902e-06 7.5505355e-06)
(8.0376308e-06 3.0035059e-06 2.8550671e-06)
(-1.5004129e-05 -5.6096144e-05 0.00048621233)
(-1.61931e-05 -7.9147159e-05 0.00011133766)
(-1.9281479e-06 -2.9871912e-05 2.9362451e-05)
(5.2411393e-06 -8.2166723e-06 8.9514094e-06)
(7.1416679e-06 -1.2464193e-06 3.1634295e-06)
(-7.4228704e-05 -0.00034297042 2.8125648e-05)
(-3.9123788e-05 -0.00041690107 8.4623315e-06)
(-7.2994967e-06 -9.1232051e-05 3.4834922e-06)
(4.5543535e-06 -2.1313832e-05 1.7069173e-06)
(7.5291512e-06 -4.6844839e-06 8.8962992e-07)
)
;
    }
    procBoundary10to11
    {
        type            processor;
        value           nonuniform List<vector> 
25
(
(0.0010913991 -7.452574e-05 -0.000143333)
(8.0203995e-05 -0.00012314522 -6.284269e-05)
(1.8500607e-05 -7.5388296e-05 -2.7090904e-05)
(-5.771073e-08 -4.1522062e-05 -1.2292024e-05)
(-4.5583672e-06 -2.3210298e-05 -5.8831128e-06)
(0.00018945296 -4.2229925e-05 -0.00010431323)
(3.3790298e-05 -7.2491468e-05 -5.2268751e-05)
(7.125143e-06 -4.9163818e-05 -2.3070853e-05)
(-2.3162741e-06 -3.0351846e-05 -1.0163301e-05)
(-4.7227278e-06 -1.8432086e-05 -4.6533866e-06)
(0.00037043953 -2.2428834e-05 -4.6766596e-05)
(4.6096209e-06 -4.1850738e-05 -2.3445777e-05)
(-1.8116476e-06 -3.328284e-05 -1.0472456e-05)
(-5.1948669e-06 -2.3104596e-05 -4.4648603e-06)
(-5.7428779e-06 -1.5258858e-05 -1.8940663e-06)
(0.00035948051 -1.8885484e-05 3.3153635e-05)
(-1.4918409e-05 -3.6174074e-05 1.345025e-05)
(-1.1738887e-05 -3.0182898e-05 7.0492546e-06)
(-1.0118342e-05 -2.1773456e-05 3.8012152e-06)
(-8.1742597e-06 -1.4808427e-05 2.0198515e-06)
(-9.8295518e-06 -4.2148228e-05 8.949246e-05)
(-4.473153e-05 -6.7971511e-05 5.4720572e-05)
(-2.8425376e-05 -4.2931877e-05 2.8324305e-05)
(-1.8594108e-05 -2.8133999e-05 1.3637944e-05)
(-1.2371823e-05 -1.8021246e-05 6.3940284e-06)
)
;
    }
    procBoundary10to13
    {
        type            processor;
        value           nonuniform List<vector> 
25
(
(8.6407459e-06 -2.5383582e-07 -9.8744583e-07)
(8.1116385e-06 -2.8300282e-06 -1.7309134e-06)
(7.097599e-06 -5.2047311e-06 -2.2001388e-06)
(5.1601045e-06 -8.0997374e-06 -2.5215239e-06)
(1.3550747e-06 -1.1589663e-05 -2.8658993e-06)
(7.7979605e-06 7.6254048e-07 -3.690051e-07)
(7.5808345e-06 -1.3659617e-06 -1.0461643e-06)
(6.8068489e-06 -3.8472018e-06 -1.3015427e-06)
(4.8560519e-06 -6.9147609e-06 -1.4064271e-06)
(1.0375789e-06 -1.0016699e-05 -1.7723255e-06)
(7.0046659e-06 9.3206668e-07 5.7668955e-07)
(7.1791009e-06 -4.5126212e-07 1.303e-07)
(6.7373362e-06 -3.0059377e-06 1.9975163e-07)
(4.6893217e-06 -6.3865765e-06 3.6838468e-07)
(5.4964064e-07 -9.2586312e-06 5.5223462e-08)
(6.6851784e-06 3.1396176e-07 1.2828516e-06)
(7.2038966e-06 -4.1931957e-07 1.4933077e-06)
(7.0449336e-06 -3.2343352e-06 2.1284891e-06)
(4.7115237e-06 -7.1282419e-06 2.6682319e-06)
(-1.7200734e-07 -9.9417537e-06 2.4045156e-06)
(7.2345541e-06 -5.4152886e-07 1.3458615e-06)
(8.0247384e-06 -1.3802572e-06 2.5856683e-06)
(7.9122604e-06 -5.0303565e-06 3.9500075e-06)
(4.9653482e-06 -9.7668688e-06 4.8819085e-06)
(-1.0797637e-06 -1.2673219e-05 4.7071059e-06)
)
;
    }
    procBoundary10to19
    {
        type            processor;
        value           nonuniform List<vector> 
25
(
(0.00018483849 -7.5980473e-06 -4.7260935e-05)
(0.000668126 7.5906522e-05 0.00045651234)
(0.00033941856 3.7029867e-05 0.00020245248)
(0.0004807504 -2.4781003e-05 0.00018853044)
(0.00013721102 -0.00010183502 0.00060173176)
(-6.48115e-05 -6.8064446e-06 -1.4928543e-05)
(1.4741482e-05 0.00010424321 0.00010384796)
(0.00011106668 4.5222546e-05 9.0917387e-05)
(0.0001265189 -5.1134125e-05 0.000106072)
(2.7587131e-05 -0.00016339706 0.00018025325)
(-8.545711e-06 1.5664093e-06 -3.8189e-06)
(2.1967995e-05 3.5798182e-05 2.9717465e-05)
(5.634454e-05 5.8709381e-06 4.0020803e-05)
(5.6710299e-05 -4.5622217e-05 5.1192931e-05)
(1.0235244e-05 -9.5097036e-05 6.719941e-05)
(7.5132742e-06 7.7704822e-07 -1.7024645e-07)
(1.8871676e-05 7.8376075e-06 1.1169998e-05)
(2.9614257e-05 -7.2648297e-06 1.8438424e-05)
(2.5497074e-05 -3.2253281e-05 2.4339751e-05)
(1.9236081e-06 -5.2268001e-05 2.8314526e-05)
(1.0102406e-05 -4.9379214e-07 7.6210264e-07)
(1.3926073e-05 -1.195764e-06 5.2060708e-06)
(1.6253644e-05 -9.5574251e-06 8.9445651e-06)
(1.1707114e-05 -2.1468847e-05 1.1714125e-05)
(-1.2152124e-06 -2.9585877e-05 1.27252e-05)
)
;
    }
}


// ************************************************************************* //
