/*--------------------------------*- C++ -*----------------------------------*\
| =========                 |                                                 |
| \\      /  F ield         | OpenFOAM: The Open Source CFD Toolbox           |
|  \\    /   O peration     | Version:  3.0.1                                 |
|   \\  /    A nd           | Web:      www.OpenFOAM.org                      |
|    \\/     M anipulation  |                                                 |
\*---------------------------------------------------------------------------*/
FoamFile
{
    version     2.0;
    format      ascii;
    class       volScalarField;
    location    "0.1";
    object      p;
}
// * * * * * * * * * * * * * * * * * * * * * * * * * * * * * * * * * * * * * //

dimensions      [0 2 -2 0 0 0 0];

internalField   nonuniform List<scalar> 
125
(
-0.16544806
-0.25138841
-0.039827544
0.16522427
0.050961601
-0.12094613
-0.12160729
-0.048399754
0.022684086
0.012984322
-0.091895878
-0.08270768
-0.050772475
-0.019944299
-0.014498812
-0.075182239
-0.067593661
-0.051710503
-0.036461164
-0.030644186
-0.06577691
-0.060676592
-0.052168822
-0.043994394
-0.039775303
-0.14874892
-0.19837209
-0.084615453
0.068707262
0.047443473
-0.1160386
-0.12177931
-0.066211508
0.0053403305
0.0148248
-0.090074552
-0.085002259
-0.057409228
-0.024952375
-0.014368322
-0.074305785
-0.06864976
-0.054286159
-0.038583012
-0.031190529
-0.065310807
-0.061087135
-0.053243489
-0.045045099
-0.040323275
-0.15565641
-0.31650888
-0.21078
0.16512636
0.20628954
-0.11735812
-0.14346196
-0.090425784
0.017050184
0.042769105
-0.089398035
-0.08942846
-0.063233883
-0.02475152
-0.010079953
-0.073496254
-0.069601107
-0.056137792
-0.039552387
-0.031124151
-0.06474277
-0.06128311
-0.053985201
-0.045803235
-0.040837329
-0.13231527
-0.20222756
-0.11792704
0.072554775
0.091651832
-0.10791907
-0.12524581
-0.075824817
0.0041600141
0.021307165
-0.08555918
-0.08582875
-0.06125987
-0.027728393
-0.015460762
-0.071700057
-0.068600176
-0.056149946
-0.040919493
-0.033216995
-0.063819416
-0.060896599
-0.054218019
-0.046606333
-0.041925635
-0.15891191
-0.32464793
-0.069361714
0.19558073
0.05828719
-0.10978697
-0.13628844
-0.064251419
0.017648533
0.0079175885
-0.083381718
-0.084892453
-0.058777473
-0.028136184
-0.021621383
-0.069901709
-0.06741405
-0.055763854
-0.042273834
-0.036188475
-0.062758604
-0.060251905
-0.054250657
-0.047495912
-0.043414505
)
;

boundaryField
{
    movingWall
    {
        type            zeroGradient;
    }
    CPLReceiveMD
    {
        type            zeroGradient;
    }
    streamwiseIn
    {
        type            cyclic;
    }
    streamwiseOut
    {
        type            cyclic;
    }
    front
    {
        type            cyclic;
    }
    back
    {
        type            cyclic;
    }
    procBoundary2to0throughstreamwiseOut
    {
        type            processorCyclic;
        value           nonuniform List<scalar> 
25
(
-1.8622556e-05
-0.0097576289
-0.022418843
-0.032615494
-0.039699035
-0.001650522
-0.0051263024
-0.020305664
-0.032099146
-0.039745038
0.04500064
0.0072046039
-0.017582238
-0.031855817
-0.040034524
0.014079603
-0.0031691509
-0.021466499
-0.033670257
-0.04103537
-0.01079667
-0.016183209
-0.027629344
-0.036645999
-0.042552239
)
;
    }
    procBoundary2to1
    {
        type            processor;
        value           nonuniform List<scalar> 
25
(
-0.11728272
-0.10355456
-0.087372965
-0.075017162
-0.066748424
-0.10840284
-0.097367977
-0.083820103
-0.073118003
-0.065761911
-0.10037916
-0.091704844
-0.080497143
-0.071241273
-0.064716033
-0.049752817
-0.077293255
-0.07516198
-0.068819256
-0.063475132
-0.064652879
-0.07462358
-0.072019011
-0.066751134
-0.062256217
)
;
    }
    procBoundary2to5
    {
        type            processor;
        value           nonuniform List<scalar> 
25
(
-0.060442079
-0.057198155
-0.052405379
-0.047784342
-0.044966667
-0.060199002
-0.057360112
-0.052885505
-0.048325671
-0.045353188
-0.05986086
-0.057391476
-0.053234708
-0.048804317
-0.045788361
-0.059368462
-0.057214523
-0.05341538
-0.049284747
-0.04641183
-0.058783255
-0.056894463
-0.053493456
-0.049784064
-0.047194958
)
;
    }
    procBoundary2to11
    {
        type            processor;
        value           nonuniform List<scalar> 
25
(
-0.1274099
-0.19194689
-0.070855768
0.075950528
0.016359829
-0.097600316
-0.1088205
-0.062921012
-0.0094973747
-0.011889008
-0.078152728
-0.077663885
-0.058372182
-0.036066272
-0.030216489
-0.067445842
-0.065030664
-0.055738659
-0.045124562
-0.039962585
-0.061544714
-0.059328785
-0.05429576
-0.048674803
-0.045132296
)
;
    }
    procBoundary2to20throughfront
    {
        type            processorCyclic;
        value           nonuniform List<scalar> 
25
(
-0.17253821
-0.1272003
-0.095078617
-0.07650463
-0.066268284
-0.13805715
-0.10433583
-0.07938167
-0.066588105
-0.060241955
-0.018786652
-0.034667972
-0.044482882
-0.048991628
-0.050983453
0.080566098
0.020761487
-0.015685959
-0.033870084
-0.042752774
0.045621648
0.013762378
-0.012603371
-0.029331072
-0.039052126
)
;
    }
}


// ************************************************************************* //
