/*--------------------------------*- C++ -*----------------------------------*\
| =========                 |                                                 |
| \\      /  F ield         | OpenFOAM: The Open Source CFD Toolbox           |
|  \\    /   O peration     | Version:  3.0.1                                 |
|   \\  /    A nd           | Web:      www.OpenFOAM.org                      |
|    \\/     M anipulation  |                                                 |
\*---------------------------------------------------------------------------*/
FoamFile
{
    version     2.0;
    format      ascii;
    class       surfaceScalarField;
    location    "0.1";
    object      phi;
}
// * * * * * * * * * * * * * * * * * * * * * * * * * * * * * * * * * * * * * //

dimensions      [0 3 -1 0 0 0 0];

internalField   nonuniform List<scalar> 
300
(
0.38529341
-0.088950357
-0.033353306
0.97664407
-0.25923373
-0.10579902
0.91218416
0.01712116
0.08949227
0.26584581
0.28471781
0.19271362
0.075909345
0.0069895336
0.0013344667
-0.058102655
-0.0098120456
-0.14600721
-0.077777421
0.00037230911
-0.14177582
0.0047421426
0.035624849
0.01936389
0.08522907
0.034651258
0.054961115
-0.0036992952
-0.018381979
-0.033433661
-0.0036435675
-0.063851175
-0.03024228
0.0045909341
-0.06163638
0.0018748705
0.013272459
-0.010897872
0.033045122
0.010011862
0.03229192
-0.00026213377
-0.015176166
-0.018815659
-0.0017536747
-0.031757765
-0.013839814
0.0021118156
-0.030489842
0.00091554212
0.0051508591
-0.011633045
0.015069933
0.0042434186
0.018264742
0.0010932637
-0.010198095
-0.00093228272
-0.017009925
0.00082106911
-0.016342824
0.002149354
-0.0084349236
0.0021015125
0.0010961189
0.17465239
-0.065387993
0.013781131
-0.013973381
-0.15307276
0.23590189
-0.13964437
-0.036791645
0.25191738
0.11894806
0.12664054
-0.19250507
0.065227892
-0.31716136
0.011465675
-0.051927337
0.0026246698
-0.11104645
-0.073561944
0.043317515
-0.14300079
-0.017612185
0.048393193
-0.018970795
0.060589978
-0.023380895
0.058388827
-0.055834492
-0.01015153
-0.031542445
-0.0013576119
-0.055171119
-0.032715853
0.0088435554
-0.06489158
-0.0062505275
0.011643213
-0.021169972
0.027267094
-0.00039595522
0.033646509
-0.0085668165
-0.011311789
-0.017994203
-0.0016205782
-0.028719542
-0.01513065
0.0019007776
-0.031396546
-0.0020874932
0.0037022017
-0.014782626
0.012926637
0.0019398892
0.018268083
-0.00013065169
-0.0084451441
-0.0011362984
-0.015682012
0.00039178286
-0.016390655
0.0014835113
-0.0094401726
0.0015166754
0.0010285051
0.40988449
-0.076565234
-0.046617816
1.2197272
-0.34568658
-0.22817233
1.8974048
-0.24038228
-0.18538637
1.2242941
0.29577497
0.18481232
0.32665408
0.22887879
0.052171826
-0.055924858
-0.018863517
-0.10569443
-0.10804788
-0.036382187
-0.21418608
-0.054363581
-0.029172461
-0.051124338
0.083577817
0.025740076
0.10567589
0.04287871
4.9490206e-05
-0.031808923
-0.0076754322
-0.05237655
-0.039673047
-0.0071926087
-0.076935106
-0.014204515
-0.0039436934
-0.029342014
0.029614774
0.0059484443
0.042103062
0.01075406
-0.0077909835
-0.017510781
-0.0035923504
-0.02691936
-0.016642335
-0.0020010939
-0.033159632
-0.0043084687
2.5050262e-05
-0.016853312
0.012505375
0.0027336443
0.019431231
0.0041844621
-0.0069173758
-0.0018467629
-0.014590695
-0.00077278308
-0.01635769
0.00046603059
-0.0099283259
0.0016063696
0.0021765377
0.25760658
-0.048773234
0.053087838
-0.061049102
-0.15387002
0.24435927
-0.065349711
-0.084121408
-0.096989778
0.22836559
0.13669626
-0.24559403
0.14058097
0.066657689
0.034644533
-0.044717351
0.0037154599
-0.098785947
-0.078847123
0.022033212
-0.1598184
-0.029130851
-0.023142889
-0.03424106
0.063787018
-0.026928592
0.073535697
0.026788372
0.00052979328
-0.027721172
-0.0043595189
-0.049123751
-0.034467397
-0.001880222
-0.067037771
-0.010224812
-0.0049637813
-0.024535124
0.026390659
0.00082223434
0.03551996
0.012321537
-0.0062002926
-0.015764144
-0.0035978981
-0.024892968
-0.015411782
-0.0023735397
-0.03045038
-0.0038654791
-0.00077196626
-0.015402105
0.011377211
0.0027094916
0.017421235
0.0059426103
-0.0058435838
-0.0021220841
-0.013352011
-0.0012895988
-0.015217311
6.5444874e-05
-0.0093580527
0.0017793878
0.0029777514
0.44927298
-0.098181595
1.3348981
-0.37623648
1.2451569
-0.010225148
0.4051911
0.35540503
0.10068203
0.052966755
-0.052814023
-0.14354539
-0.10276168
-0.16327862
-0.010949906
0.019439565
0.091542636
0.059083794
0.0030098511
-0.026965588
-0.052210474
-0.03497489
-0.061258598
-0.0060275538
-0.01303591
0.028293146
0.029140603
-0.0049758322
-0.014289217
-0.023292243
-0.014329392
-0.026970308
-0.0030266294
-0.012168885
0.010449332
0.014455782
-0.0050110736
-0.011997204
-0.013503625
-0.0081596239
)
;

boundaryField
{
    movingWall
    {
        type            calculated;
        value           nonuniform 0();
    }
    CPLReceiveMD
    {
        type            calculated;
        value           uniform 0;
    }
    streamwiseIn
    {
        type            cyclic;
        value           nonuniform 0();
    }
    streamwiseOut
    {
        type            cyclic;
        value           nonuniform 0();
    }
    front
    {
        type            cyclic;
        value           nonuniform 0();
    }
    back
    {
        type            cyclic;
        value           nonuniform 0();
    }
    procBoundary2to0throughstreamwiseOut
    {
        type            processorCyclic;
        value           nonuniform List<scalar> 
25
(
0.17230246
0.045492879
0.015833508
0.0039406188
-0.00015173668
0.37781942
0.039948529
0.011866312
0.0018152755
-0.001155704
0.35153596
0.071084401
0.014992058
0.0014608787
-0.0016049783
0.24998145
0.048943877
0.012002026
0.00090466841
-0.0017798038
0.28737898
0.048226725
0.01200984
0.00091396624
-0.0017236477
)
;
    }
    procBoundary2to1
    {
        type            processor;
        value           nonuniform List<scalar> 
25
(
-0.27717605
-0.034819245
-0.0090406735
-0.00032863674
0.0019427427
-0.15638881
-0.037350307
-0.012503783
-0.0023740016
0.00090198269
-0.27292949
-0.051340142
-0.017796134
-0.0045081021
-5.3647311e-05
-0.30856691
-0.061265104
-0.020786359
-0.0057593605
-0.00068884378
-0.23508418
-0.070327028
-0.022717986
-0.0062990507
-0.0010053226
)
;
    }
    procBoundary2to5
    {
        type            processor;
        value           nonuniform List<scalar> 
25
(
-0.010672405
-0.006959224
0.00047270299
0.0075812866
0.010384354
-0.01022594
-0.0074563538
-0.00071673242
0.0065622018
0.010061276
-0.0097657749
-0.0077855826
-0.0015019486
0.0060033514
0.009903877
-0.0089034642
-0.0073659879
-0.001605835
0.0053580719
0.0089740865
-0.0079520128
-0.006716501
-0.0015145502
0.004577856
0.0075623598
)
;
    }
    procBoundary2to11
    {
        type            processor;
        value           nonuniform List<scalar> 
25
(
-0.062932679
-0.26499969
0.0029598715
0.23890995
0.083793526
-0.024363905
-0.054904013
-0.0026661179
0.054262979
0.039604844
-0.010456659
-0.014452846
-0.0008118122
0.015854924
0.017186949
-0.0049119272
-0.0047663902
-5.0897615e-05
0.0057001258
0.0075470057
-0.0024281609
-0.0018464347
8.9906207e-05
0.0023573286
0.0034351541
)
;
    }
    procBoundary2to20throughfront
    {
        type            processorCyclic;
        value           nonuniform List<scalar> 
25
(
0.014197159
0.012522792
0.0063674494
0.0026449532
0.00098277336
-0.22624384
-0.034502662
-0.0066465491
-0.0020103325
-0.00086910339
-0.042087614
-0.027473616
-0.012580644
-0.0054377931
-0.0023706386
0.16892542
0.00380029
-0.0085235242
-0.0051831308
-0.0024834112
0.010656149
-0.0015679653
-0.0037939075
-0.002627112
-0.0014466901
)
;
    }
}


// ************************************************************************* //
