/*--------------------------------*- C++ -*----------------------------------*\
| =========                 |                                                 |
| \\      /  F ield         | OpenFOAM: The Open Source CFD Toolbox           |
|  \\    /   O peration     | Version:  3.0.1                                 |
|   \\  /    A nd           | Web:      www.OpenFOAM.org                      |
|    \\/     M anipulation  |                                                 |
\*---------------------------------------------------------------------------*/
FoamFile
{
    version     2.0;
    format      ascii;
    class       volVectorField;
    location    "0.1";
    object      U;
}
// * * * * * * * * * * * * * * * * * * * * * * * * * * * * * * * * * * * * * //

dimensions      [0 1 -1 0 0 0 0];

internalField   nonuniform List<vector> 
125
(
(0.00090628956 -0.00011124606 -5.943506e-05)
(0.00018345118 -0.00032408388 0.00015061429)
(0.0054584671 2.1403928e-05 0.00016452327)
(-0.00011689884 0.00035594389 2.966662e-05)
(0.00049130651 9.4935201e-05 -4.6282106e-06)
(4.5278299e-05 -0.00018387387 -2.7904298e-05)
(-0.00018123772 -0.00042133523 4.3609499e-05)
(-0.00035910189 2.7333278e-05 7.8859713e-05)
(-0.00015342198 0.00046251181 3.8554688e-05)
(8.1141535e-05 0.00016363812 -2.6535714e-06)
(-1.1660254e-05 -0.00011441543 -1.2510765e-05)
(-0.00010280555 -0.00013504048 1.405131e-05)
(-0.00015690455 8.2715795e-06 3.2316473e-05)
(-9.06791e-05 0.0001478579 2.3167406e-05)
(6.1918101e-06 0.00010906158 4.4148268e-06)
(-1.8555777e-05 -6.5304803e-05 -5.4977196e-06)
(-5.8675338e-05 -5.5084142e-05 5.1539696e-06)
(-7.7825917e-05 3.4866593e-06 1.3236594e-05)
(-5.2659886e-05 6.0123289e-05 1.1783218e-05)
(-9.6093649e-06 6.3190594e-05 4.6503161e-06)
(-1.5175682e-05 -3.6855894e-05 -2.3936994e-06)
(-3.401412e-05 -2.5992909e-05 2.1131986e-06)
(-4.1697524e-05 1.7349547e-06 5.6504347e-06)
(-3.0975173e-05 2.8307642e-05 5.731333e-06)
(-1.0731435e-05 3.5807861e-05 3.1783629e-06)
(0.00034394116 -8.1777169e-05 -2.4437462e-05)
(9.8432563e-05 -0.00019144054 0.00016266833)
(0.00014069414 -4.6026303e-05 0.00042676045)
(-0.00030446981 0.00015838552 2.5711458e-07)
(0.00053296029 8.1602275e-05 -0.00038773201)
(6.1062153e-05 -0.00014668945 -8.9732115e-06)
(-0.00012449914 -0.00028338562 5.4632578e-05)
(-0.00031759161 -6.8034223e-05 0.00010506221)
(-0.00020257607 0.00023411489 1.4082622e-05)
(2.6264788e-05 0.00015458191 -7.4468196e-05)
(2.958803e-06 -0.00010433762 -6.2477754e-06)
(-8.1659525e-05 -0.00013282941 1.6799152e-05)
(-0.0001501199 -2.9818158e-05 3.1152019e-05)
(-0.00010759655 0.00010980393 1.201755e-05)
(-1.1611781e-05 0.00011503231 -1.1047383e-05)
(-1.1167012e-05 -6.1915526e-05 -4.2167669e-06)
(-5.0044375e-05 -5.9792998e-05 5.0174567e-06)
(-7.5160849e-05 -1.0418029e-05 1.1067869e-05)
(-5.7732494e-05 5.0229785e-05 7.7283349e-06)
(-1.6204508e-05 6.4886346e-05 1.2005502e-06)
(-1.1682768e-05 -3.5271203e-05 -2.585253e-06)
(-3.0162044e-05 -2.8227382e-05 1.5166774e-06)
(-4.0097166e-05 -3.5034962e-06 4.5415348e-06)
(-3.2292181e-05 2.4356062e-05 4.5224761e-06)
(-1.3243627e-05 3.5407206e-05 2.6549218e-06)
(0.00060863281 -9.5769447e-05 -4.105987e-05)
(0.00051202362 -0.00043219905 9.6756396e-06)
(0.0055776375 -0.00030050671 8.3152988e-05)
(0.0054190465 0.00036977008 -9.6334611e-06)
(0.00037227393 0.00040839936 -0.00011035841)
(0.00012941365 -0.00016567148 -2.0303893e-05)
(-6.7232911e-05 -0.0005672844 8.6614097e-06)
(-0.00039958116 -0.00036848779 2.4028647e-05)
(-0.00033136709 0.00047427274 2.9460834e-06)
(2.4637992e-05 0.00054052008 -1.6211827e-05)
(2.2331858e-05 -0.00010965898 -1.1292018e-05)
(-6.5405764e-05 -0.00018465561 2.0628262e-06)
(-0.00016168613 -8.5722791e-05 9.6237816e-06)
(-0.00013287811 0.00014150361 6.937918e-06)
(-1.7918194e-05 0.00018473035 2.7291692e-06)
(-4.0965208e-06 -6.164228e-05 -6.5161519e-06)
(-4.3390702e-05 -7.0366617e-05 -1.2546901e-07)
(-7.5115039e-05 -2.3123825e-05 4.6586694e-06)
(-6.2527205e-05 5.2628215e-05 5.840815e-06)
(-1.9236276e-05 7.6892899e-05 5.0656711e-06)
(-8.5778582e-06 -3.409116e-05 -3.7287464e-06)
(-2.6887332e-05 -3.0526015e-05 -4.7617977e-07)
(-3.8691725e-05 -7.2587603e-06 2.4368332e-06)
(-3.2861785e-05 2.3129448e-05 3.9034646e-06)
(-1.4415788e-05 3.6660841e-05 4.0057499e-06)
(0.00068781212 -6.0999176e-05 8.0866656e-06)
(0.00024693239 -0.00019245859 2.0213348e-05)
(-0.00043230885 -0.00010519126 -0.00035297188)
(0.00079826318 0.00017097157 -7.6008522e-05)
(0.0001571024 0.00017580754 0.00036940962)
(0.00011996174 -0.00011689992 -1.8932488e-05)
(-8.0160571e-05 -0.00029100227 -1.7937367e-05)
(-0.00032344493 -0.00014160403 -6.5440594e-05)
(-0.00024249303 0.00025069236 -1.5015964e-06)
(1.8331627e-05 0.00026772676 8.712408e-05)
(2.6670722e-05 -9.0549875e-05 -1.5043882e-05)
(-6.0743724e-05 -0.00014161629 -1.1342586e-05)
(-0.00014524484 -4.918814e-05 -1.1143836e-05)
(-0.00011449109 0.00011269867 8.4587985e-06)
(-1.564953e-05 0.00013630981 2.8850999e-05)
(-5.434649e-07 -5.4352255e-05 -8.9879983e-06)
(-3.8869554e-05 -6.2332004e-05 -5.4689104e-06)
(-6.9194565e-05 -1.7604978e-05 -9.3572546e-07)
(-5.7325492e-05 4.7195332e-05 6.802701e-06)
(-1.8117867e-05 6.6162927e-05 1.2659967e-05)
(-6.441276e-06 -3.0830914e-05 -4.9612388e-06)
(-2.3996464e-05 -2.8465033e-05 -2.5781926e-06)
(-3.5717521e-05 -6.8365239e-06 6.6394694e-07)
(-3.0723265e-05 2.0913476e-05 4.2320244e-06)
(-1.3921601e-05 3.2988057e-05 6.4433704e-06)
(0.00085315255 -0.00012279103 -1.2266746e-05)
(0.00016411521 -0.00047036013 -2.5826759e-05)
(0.0075369939 -1.2797836e-05 -0.00011757287)
(-0.00028327801 0.00044431785 -8.328719e-06)
(0.001135174 0.00012592987 0.00018807593)
(0.00015421654 -0.00018880503 -2.5799039e-05)
(-0.00011373761 -0.00059885022 -4.1066183e-05)
(-0.00038263253 -2.6482255e-05 -3.2262316e-05)
(-0.000180406 0.00055877999 3.4140499e-05)
(8.4740519e-05 0.0001997777 8.2986986e-05)
(3.2187163e-05 -9.9714493e-05 -1.8518365e-05)
(-6.1505718e-05 -0.00017218716 -2.0414202e-05)
(-0.00014188462 -2.1217901e-05 -7.2210254e-06)
(-9.2883671e-05 0.00014980791 2.0843031e-05)
(-1.2617402e-06 0.00011026621 3.6887171e-05)
(1.661709e-06 -5.1559637e-05 -1.063746e-05)
(-3.5338429e-05 -6.1602224e-05 -8.9251568e-06)
(-6.2843427e-05 -1.1316041e-05 -1.0290953e-06)
(-4.8931513e-05 4.8401441e-05 1.051199e-05)
(-1.4064135e-05 5.448527e-05 1.6863354e-05)
(-5.0050588e-06 -2.7797455e-05 -5.6881726e-06)
(-2.1262147e-05 -2.6299246e-05 -3.9203353e-06)
(-3.1881508e-05 -5.6753815e-06 1.9409737e-07)
(-2.7082362e-05 1.8776937e-05 5.1712333e-06)
(-1.2353289e-05 2.7517774e-05 8.016923e-06)
)
;

boundaryField
{
    movingWall
    {
        type            fixedValue;
        value           nonuniform 0();
    }
    CPLReceiveMD
    {
        type            fixedValue;
        value           nonuniform List<vector> 
25
(
(1.1441648 0 0)
(0.23818754 0 0)
(0.13745147 0 0)
(0.61443354 0 0)
(0.40800049 0 0)
(0.99260457 0 0)
(0.51734175 0 0)
(0.74698052 0 0)
(0.5662384 0 0)
(0.77234418 0 0)
(13.019381 0 0)
(1.6120105 0 0)
(13.580345 0 0)
(0.50085605 0 0)
(17.700827 0 0)
(0.21680119 0 0)
(0.047382136 0 0)
(12.939338 0 0)
(2.6448947 0 0)
(0.066010391 0 0)
(0.15740443 0 0)
(0.71508514 0 0)
(0.14183867 0 0)
(0.020837096 0 0)
(1.2420278 0 0)
)
;
    }
    streamwiseIn
    {
        type            cyclic;
    }
    streamwiseOut
    {
        type            cyclic;
    }
    front
    {
        type            cyclic;
    }
    back
    {
        type            cyclic;
    }
    procBoundary2to0throughstreamwiseOut
    {
        type            processorCyclic;
        value           nonuniform List<vector> 
25
(
(0.00046733419 2.4323969e-05 -2.4478749e-05)
(0.00010713395 5.5972182e-05 -2.2343233e-05)
(4.7674358e-05 5.7126696e-05 -8.5765523e-06)
(1.836609e-05 4.3200049e-05 -1.8950938e-06)
(5.7624376e-06 2.931943e-05 2.5247834e-07)
(0.0011687441 8.7301001e-06 -0.00011249955)
(8.9849723e-05 4.6673869e-05 -4.2419727e-05)
(3.9542294e-05 6.7423874e-05 -1.2092453e-05)
(1.4177971e-05 4.8597962e-05 -1.8985758e-06)
(3.7025695e-06 3.1037444e-05 8.3812218e-07)
(0.00060697873 9.4482862e-05 -3.9288195e-05)
(0.00015350412 0.00015644804 -4.9007347e-06)
(4.7251829e-05 9.7647857e-05 2.9001901e-06)
(1.3719661e-05 5.6130624e-05 3.927456e-06)
(2.706683e-06 3.24674e-05 3.2254903e-06)
(0.00073662173 4.3142663e-05 0.00013939863)
(0.00011322293 8.8885213e-05 5.8464672e-05)
(3.9589168e-05 7.6252068e-05 2.5115218e-05)
(1.1436493e-05 4.8923262e-05 1.1974842e-05)
(1.7502626e-06 2.9416431e-05 6.2945235e-06)
(0.00042483914 1.3480812e-05 9.680237e-05)
(0.00011008251 4.2096105e-05 6.0338995e-05)
(3.5722419e-05 5.1158018e-05 3.1247903e-05)
(9.3972622e-06 3.730993e-05 1.559276e-05)
(8.7632651e-07 2.3967656e-05 7.8975198e-06)
)
;
    }
    procBoundary2to1
    {
        type            processor;
        value           nonuniform List<vector> 
25
(
(0.00055562866 -3.4329249e-05 -9.3312787e-05)
(9.4545374e-05 -7.4785038e-05 -4.4693849e-05)
(3.6415621e-05 -7.1349184e-05 -2.2098015e-05)
(1.2117931e-05 -5.156875e-05 -1.0591082e-05)
(2.7039976e-06 -3.3805139e-05 -4.9720891e-06)
(0.00041532807 -2.7593581e-05 -4.2251782e-05)
(8.8358537e-05 -6.1465139e-05 -2.9628251e-05)
(3.8861553e-05 -6.0630051e-05 -1.7192992e-05)
(1.4356847e-05 -4.5151435e-05 -9.4417999e-06)
(4.0261214e-06 -3.0319065e-05 -5.0811466e-06)
(0.00090603681 -2.1683538e-05 -0.0001464488)
(0.00010028938 -4.9704385e-05 -5.0191326e-05)
(4.4359272e-05 -5.116273e-05 -2.1649081e-05)
(1.6777696e-05 -3.9456904e-05 -1.0749016e-05)
(5.1993214e-06 -2.7088551e-05 -5.7176716e-06)
(0.00060655105 6.873779e-05 -8.9264494e-05)
(0.00010833758 6.3408594e-05 -4.2706554e-05)
(4.6881453e-05 -2.1187733e-05 -2.1197882e-05)
(1.7829422e-05 -2.9220025e-05 -1.122714e-05)
(5.8085744e-06 -2.2717478e-05 -6.1509921e-06)
(0.00051957054 2.4919078e-05 9.7941059e-05)
(0.00015664471 1.8407433e-05 -1.1768311e-06)
(5.3660045e-05 -1.9683311e-05 -1.2244055e-05)
(1.8621374e-05 -2.4410015e-05 -9.410911e-06)
(6.0258917e-06 -1.9273721e-05 -5.8032441e-06)
)
;
    }
    procBoundary2to5
    {
        type            processor;
        value           nonuniform List<vector> 
25
(
(-1.0743548e-05 -2.1004391e-05 -1.0407284e-06)
(-2.008449e-05 -1.3359863e-05 9.4728354e-07)
(-2.3525366e-05 8.9295694e-07 2.5256381e-06)
(-1.858698e-05 1.4528874e-05 2.8052227e-06)
(-8.5975772e-06 2.047791e-05 1.9133677e-06)
(-9.0753293e-06 -2.0152007e-05 -1.4520336e-06)
(-1.8276668e-05 -1.4214729e-05 4.8435104e-07)
(-2.2577404e-05 -1.2194915e-06 2.0741544e-06)
(-1.8821791e-05 1.262355e-05 2.550141e-06)
(-9.5231267e-06 1.9736519e-05 2.0535301e-06)
(-7.5339844e-06 -1.921624e-05 -2.0758628e-06)
(-1.6558302e-05 -1.4709458e-05 -3.6312011e-07)
(-2.1459576e-05 -2.6212526e-06 1.3256417e-06)
(-1.8607604e-05 1.1440129e-05 2.3982289e-06)
(-9.898324e-06 1.9191661e-05 2.6465219e-06)
(-6.29102e-06 -1.7575747e-05 -2.6942926e-06)
(-1.4875163e-05 -1.3957159e-05 -1.2421414e-06)
(-1.9816055e-05 -2.9131215e-06 6.4765335e-07)
(-1.7500911e-05 1.0134409e-05 2.4501899e-06)
(-9.6149121e-06 1.7378168e-05 3.5169e-06)
(-5.3638161e-06 -1.571215e-05 -3.016844e-06)
(-1.3216356e-05 -1.2730261e-05 -1.8244756e-06)
(-1.7767244e-05 -2.8374716e-06 2.8410565e-07)
(-1.5738358e-05 8.6039972e-06 2.5497982e-06)
(-8.8734157e-06 1.4700819e-05 3.9749472e-06)
)
;
    }
    procBoundary2to11
    {
        type            processor;
        value           nonuniform List<vector> 
25
(
(0.0010913991 -7.452574e-05 -0.000143333)
(-0.0001079685 -0.00020768489 -0.00052203787)
(0.002287795 -1.9821123e-05 2.9215045e-05)
(6.4472645e-05 0.00021344566 0.00056902461)
(0.00040684615 7.0625411e-05 0.00017186065)
(8.0203995e-05 -0.00012314522 -6.284269e-05)
(-8.6685959e-05 -0.00028557653 -0.00012441874)
(-0.00024756408 -3.1192718e-05 3.62029e-06)
(-0.00012750338 0.00027986883 0.00014342445)
(4.4566177e-05 0.00011644472 9.1126359e-05)
(1.8500607e-05 -7.5388296e-05 -2.7090904e-05)
(-4.9446399e-05 -0.00010947526 -3.5449346e-05)
(-0.00010398744 -1.7954912e-05 5.7088004e-07)
(-7.0382955e-05 8.9070158e-05 4.2300079e-05)
(-5.2446489e-06 7.0186168e-05 4.0443064e-05)
(-5.771073e-08 -4.1522062e-05 -1.2292024e-05)
(-2.9261189e-05 -4.5838137e-05 -1.2032702e-05)
(-4.9757418e-05 -1.0189855e-05 1.2576204e-07)
(-3.9433043e-05 3.1523534e-05 1.4331279e-05)
(-1.3037097e-05 3.7292679e-05 1.7543585e-05)
(-4.5583672e-06 -2.3210298e-05 -5.8831128e-06)
(-1.8114194e-05 -2.1364352e-05 -4.7178061e-06)
(-2.6625953e-05 -5.5233229e-06 1.5366909e-10)
(-2.2900439e-05 1.2951285e-05 5.4536944e-06)
(-1.1195315e-05 2.009965e-05 7.7672934e-06)
)
;
    }
    procBoundary2to20throughfront
    {
        type            processorCyclic;
        value           nonuniform List<vector> 
25
(
(0.00097384535 -0.00011333733 -0.00027100332)
(-2.7023073e-05 -0.00019364324 -8.5371062e-05)
(-3.3190468e-05 -0.0001267442 -2.7388324e-05)
(-2.6912064e-05 -7.2032591e-05 -8.4277508e-06)
(-1.8768056e-05 -3.9728195e-05 -2.3510227e-06)
(-0.00021005212 -8.4359955e-05 4.9013915e-05)
(-0.00023128406 -0.0001467472 -8.8948687e-06)
(-0.00012648677 -9.4373871e-05 -8.893155e-07)
(-6.8778688e-05 -4.7854887e-05 1.9745587e-06)
(-3.8206178e-05 -2.4020696e-05 1.7811656e-06)
(-0.00043457138 3.9719779e-05 0.00026813038)
(-0.00031271088 6.425506e-05 8.9147091e-05)
(-0.00015923604 3.5804972e-05 3.3545532e-05)
(-8.1790098e-05 1.6248009e-05 1.3547591e-05)
(-4.37153e-05 7.2074592e-06 5.73075e-06)
(0.00030719254 0.00014951265 7.9501658e-05)
(-0.00012095278 0.00024062935 8.8178018e-05)
(-7.9694881e-05 0.00013657541 3.985184e-05)
(-4.9146216e-05 6.7665858e-05 1.6072961e-05)
(-2.982011e-05 3.3334058e-05 6.4635894e-06)
(0.00040887372 7.9626413e-05 5.5896194e-05)
(8.7118205e-05 0.00014553731 4.2452693e-05)
(2.0132166e-05 0.00010772842 2.1001162e-05)
(-2.5261959e-06 6.612281e-05 9.1684776e-06)
(-7.764772e-06 3.8144155e-05 3.8839715e-06)
)
;
    }
}


// ************************************************************************* //
