/*--------------------------------*- C++ -*----------------------------------*\
| =========                 |                                                 |
| \\      /  F ield         | OpenFOAM: The Open Source CFD Toolbox           |
|  \\    /   O peration     | Version:  3.0.1                                 |
|   \\  /    A nd           | Web:      www.OpenFOAM.org                      |
|    \\/     M anipulation  |                                                 |
\*---------------------------------------------------------------------------*/
FoamFile
{
    version     2.0;
    format      ascii;
    class       volVectorField;
    location    "0.2";
    object      U;
}
// * * * * * * * * * * * * * * * * * * * * * * * * * * * * * * * * * * * * * //

dimensions      [0 1 -1 0 0 0 0];

internalField   nonuniform List<vector> 
125
(
(4.4860488e-06 3.907049e-06 -7.7845405e-08)
(5.6276251e-06 1.6596243e-06 4.6154425e-08)
(5.8291434e-06 -8.0734419e-07 1.6243556e-07)
(5.0738539e-06 -3.1453261e-06 2.7496356e-07)
(3.5750455e-06 -5.0543303e-06 3.7046926e-07)
(3.01488e-06 2.4789366e-06 3.726846e-09)
(3.8201321e-06 1.0992728e-06 6.3523153e-08)
(3.9399244e-06 -4.7135078e-07 1.147992e-07)
(3.3972654e-06 -1.9795677e-06 1.6277063e-07)
(2.3678364e-06 -3.180511e-06 1.9207307e-07)
(2.0857892e-06 1.508237e-06 3.2024629e-08)
(2.6773377e-06 6.3681024e-07 5.9120352e-08)
(2.750303e-06 -3.4352775e-07 8.0112104e-08)
(2.3646937e-06 -1.2573318e-06 1.0073389e-07)
(1.637784e-06 -1.9474302e-06 1.0060401e-07)
(1.5081751e-06 8.1888989e-07 3.5052669e-08)
(1.9683673e-06 3.0953378e-07 6.0309623e-08)
(2.0457823e-06 -2.3441545e-07 7.753051e-08)
(1.7933628e-06 -7.121651e-07 8.4490108e-08)
(1.2391927e-06 -1.0440546e-06 6.8305766e-08)
(1.2187044e-06 2.5900715e-07 2.9180057e-08)
(1.6235745e-06 8.7438495e-08 6.3671025e-08)
(1.727938e-06 -8.5248115e-08 8.1675505e-08)
(1.5542928e-06 -2.2967676e-07 7.7975952e-08)
(1.065888e-06 -3.2352048e-07 5.8004874e-08)
(4.5466942e-06 3.9709014e-06 1.0984795e-07)
(5.6810966e-06 1.6794843e-06 7.9676046e-08)
(5.855603e-06 -8.2653892e-07 2.4077964e-08)
(5.1152922e-06 -3.2078877e-06 -1.7413873e-08)
(3.5750969e-06 -5.1558343e-06 -2.2439005e-08)
(3.0296179e-06 2.4997728e-06 9.7033388e-08)
(3.8207873e-06 1.0672609e-06 5.3762434e-08)
(3.9382183e-06 -5.3087411e-07 3.0149007e-09)
(3.4155476e-06 -2.0543262e-06 -3.2962522e-08)
(2.3616496e-06 -3.2823284e-06 -4.3836062e-08)
(2.0816482e-06 1.5135577e-06 9.052758e-08)
(2.6504498e-06 6.2839731e-07 4.1141605e-08)
(2.7340159e-06 -3.5481937e-07 -4.5715266e-09)
(2.3638379e-06 -1.2801349e-06 -3.996532e-08)
(1.6298736e-06 -2.0055534e-06 -6.6607748e-08)
(1.5149698e-06 8.1107481e-07 7.6148809e-08)
(1.9524102e-06 3.2151196e-07 4.5179575e-08)
(2.029686e-06 -2.1163293e-07 1.3992484e-08)
(1.7648134e-06 -7.05302e-07 -2.7479388e-08)
(1.2209593e-06 -1.0764585e-06 -8.1119692e-08)
(1.2454792e-06 2.5379239e-07 6.5091603e-08)
(1.6272804e-06 9.7446861e-08 5.6038045e-08)
(1.7065431e-06 -7.0805047e-08 3.0531607e-08)
(1.4982696e-06 -2.24976e-07 -2.156383e-08)
(1.0353283e-06 -3.3656546e-07 -9.5643881e-08)
(4.4082876e-06 3.8943375e-06 2.4649674e-07)
(5.5418551e-06 1.6885858e-06 3.2881475e-08)
(5.7320535e-06 -7.4855898e-07 -1.7621086e-07)
(5.0273369e-06 -3.0875711e-06 -3.5633406e-07)
(3.5208318e-06 -5.0122699e-06 -4.9020368e-07)
(2.9418992e-06 2.4596162e-06 1.658035e-07)
(3.7261136e-06 1.0607383e-06 3.2030877e-08)
(3.8531994e-06 -5.0000027e-07 -1.0143458e-07)
(3.3504145e-06 -2.0021191e-06 -2.2189391e-07)
(2.3176717e-06 -3.2246798e-06 -3.1344275e-07)
(2.0219713e-06 1.4873525e-06 1.1435599e-07)
(2.5822386e-06 6.282274e-07 2.5959803e-08)
(2.669196e-06 -3.3255016e-07 -6.4279919e-08)
(2.3026574e-06 -1.2518486e-06 -1.5558727e-07)
(1.586665e-06 -1.9847138e-06 -2.3189884e-07)
(1.4803323e-06 7.9349497e-07 7.393648e-08)
(1.906211e-06 3.2447109e-07 1.76915e-08)
(1.9731233e-06 -1.9928051e-07 -4.9244651e-08)
(1.6982507e-06 -6.9375078e-07 -1.2629169e-07)
(1.1762122e-06 -1.0731046e-06 -1.9948528e-07)
(1.2241505e-06 2.4799836e-07 5.2165483e-08)
(1.5890145e-06 9.8337235e-08 8.7737585e-09)
(1.6503362e-06 -6.8681084e-08 -4.9117583e-08)
(1.4281173e-06 -2.2375115e-07 -1.1850879e-07)
(9.9410581e-07 -3.3805713e-07 -1.9096306e-07)
(4.1083553e-06 3.7068914e-06 3.6021826e-07)
(5.258389e-06 1.689969e-06 2.9196619e-08)
(5.4663874e-06 -5.8915826e-07 -2.9525796e-07)
(4.8012994e-06 -2.8020545e-06 -5.9651635e-07)
(3.3906983e-06 -4.6369879e-06 -8.2660223e-07)
(2.7680339e-06 2.367632e-06 2.2560085e-07)
(3.5535492e-06 1.0603392e-06 3.4390613e-08)
(3.6842935e-06 -4.1894316e-07 -1.6451128e-07)
(3.2035394e-06 -1.8535794e-06 -3.5573219e-07)
(2.2316169e-06 -3.0240235e-06 -5.0253245e-07)
(1.9172863e-06 1.4216907e-06 1.3176107e-07)
(2.4718139e-06 6.1405795e-07 1.8262693e-08)
(2.5524689e-06 -3.0262943e-07 -1.1117454e-07)
(2.196219e-06 -1.1845326e-06 -2.4004216e-07)
(1.522029e-06 -1.8915959e-06 -3.4169466e-07)
(1.4116708e-06 7.4894006e-07 5.9784646e-08)
(1.8292291e-06 3.043658e-07 -1.4699089e-08)
(1.8857028e-06 -1.9645337e-07 -1.0411031e-07)
(1.6145728e-06 -6.6823349e-07 -1.9444834e-07)
(1.1239646e-06 -1.0355617e-06 -2.7316781e-07)
(1.1695424e-06 2.3208185e-07 1.9596434e-08)
(1.5259973e-06 8.8571737e-08 -3.9005001e-08)
(1.5792605e-06 -7.0659226e-08 -1.0626002e-07)
(1.3564242e-06 -2.1720302e-07 -1.7671337e-07)
(9.4961601e-07 -3.2808194e-07 -2.4780602e-07)
(3.7061282e-06 3.435596e-06 5.1002077e-07)
(4.8863789e-06 1.6645046e-06 6.8469951e-08)
(5.1063405e-06 -3.9037785e-07 -3.442192e-07)
(4.4959927e-06 -2.4153931e-06 -7.0148669e-07)
(3.2151881e-06 -4.1165855e-06 -9.5060539e-07)
(2.5348539e-06 2.231159e-06 2.9692299e-07)
(3.3360015e-06 1.0498044e-06 4.1770521e-08)
(3.4630766e-06 -3.1591685e-07 -2.0205975e-07)
(3.0123933e-06 -1.645645e-06 -4.1455107e-07)
(2.1226236e-06 -2.7397722e-06 -5.599572e-07)
(1.7802597e-06 1.3215363e-06 1.6121857e-07)
(2.339303e-06 5.7913772e-07 1.1653586e-08)
(2.4108912e-06 -2.7214917e-07 -1.3634379e-07)
(2.0721373e-06 -1.0905648e-06 -2.6488573e-07)
(1.4475709e-06 -1.7553492e-06 -3.5418393e-07)
(1.3199923e-06 6.8138987e-07 7.0836998e-08)
(1.742316e-06 2.6723592e-07 -2.2970711e-08)
(1.7933741e-06 -1.9436278e-07 -1.1510453e-07)
(1.5291932e-06 -6.3044787e-07 -1.9563241e-07)
(1.0676204e-06 -9.7927031e-07 -2.5824849e-07)
(1.0972628e-06 2.0787549e-07 2.4531366e-08)
(1.463158e-06 7.4069791e-08 -4.2159777e-08)
(1.5126278e-06 -7.0824022e-08 -1.06556e-07)
(1.2865713e-06 -2.0604158e-07 -1.6683386e-07)
(8.9974437e-07 -3.1274961e-07 -2.2332573e-07)
)
;

boundaryField
{
    movingWall
    {
        type            fixedValue;
        value           uniform (0 0 0);
    }
    CPLReceiveMD
    {
        type            fixedValue;
        value           nonuniform 0();
    }
    streamwiseIn
    {
        type            cyclic;
    }
    streamwiseOut
    {
        type            cyclic;
    }
    front
    {
        type            cyclic;
    }
    back
    {
        type            cyclic;
    }
    procBoundary6to3
    {
        type            processor;
        value           nonuniform List<vector> 
25
(
(6.9856612e-06 6.024725e-06 -1.6673697e-07)
(8.5345253e-06 2.425698e-06 7.9018625e-08)
(8.7448748e-06 -1.3357766e-06 3.2424459e-07)
(7.6442516e-06 -4.8562262e-06 5.4148529e-07)
(5.4013358e-06 -7.8079624e-06 7.2108669e-07)
(7.052228e-06 6.1614022e-06 1.0974486e-07)
(8.6182277e-06 2.5227449e-06 2.4800938e-08)
(8.8255903e-06 -1.3265862e-06 -5.5770312e-08)
(7.744843e-06 -4.9552132e-06 -9.0717568e-08)
(5.5008164e-06 -7.9872431e-06 -8.5896474e-08)
(6.8073606e-06 6.0547037e-06 4.2981358e-07)
(8.3690101e-06 2.5685187e-06 2.1546179e-08)
(8.6293563e-06 -1.1701475e-06 -3.3881524e-07)
(7.6141254e-06 -4.7228021e-06 -6.2772702e-07)
(5.4197041e-06 -7.7027541e-06 -8.3228913e-07)
(6.3000251e-06 5.7343103e-06 6.8434232e-07)
(7.8495988e-06 2.5873914e-06 5.8471772e-08)
(8.1763171e-06 -8.6918753e-07 -5.2269241e-07)
(7.2513691e-06 -4.2029516e-06 -1.0279102e-06)
(5.1845571e-06 -7.0203147e-06 -1.3982169e-06)
(5.6600541e-06 5.2920952e-06 7.3151092e-07)
(7.1619754e-06 2.5764291e-06 4.5792095e-08)
(7.5429743e-06 -4.9202209e-07 -6.3463585e-07)
(6.738601e-06 -3.5128878e-06 -1.2361055e-06)
(4.8609389e-06 -6.0842354e-06 -1.6812795e-06)
)
;
    }
    procBoundary6to7
    {
        type            processor;
        value           nonuniform List<vector> 
25
(
(1.457031e-06 -6.1788255e-06 4.5007738e-07)
(9.1438638e-07 -3.9168292e-06 2.4338198e-07)
(6.2039858e-07 -2.3859752e-06 1.2367444e-07)
(4.8446767e-07 -1.2833492e-06 4.7101744e-08)
(4.2314707e-07 -4.0225508e-07 -3.9392792e-09)
(1.396164e-06 -6.3470544e-06 -7.1627597e-08)
(8.9206437e-07 -3.9995494e-06 -8.3127231e-08)
(6.160753e-07 -2.420825e-06 -9.108436e-08)
(4.7844133e-07 -1.2991475e-06 -9.0459956e-08)
(4.1615303e-07 -4.0989162e-07 -9.3346035e-08)
(1.3790236e-06 -6.1896035e-06 -5.4073265e-07)
(8.881278e-07 -3.9362859e-06 -3.5192665e-07)
(6.1772604e-07 -2.3933079e-06 -2.6343192e-07)
(4.7984887e-07 -1.2856302e-06 -2.232864e-07)
(4.2209274e-07 -4.0516378e-07 -2.0422104e-07)
(1.3818698e-06 -5.7549947e-06 -9.0216003e-07)
(8.9018557e-07 -3.7222487e-06 -5.5078032e-07)
(6.1947342e-07 -2.2921848e-06 -3.7913624e-07)
(4.8447348e-07 -1.2399908e-06 -3.0304013e-07)
(4.3228907e-07 -3.9088259e-07 -2.710748e-07)
(1.3732639e-06 -5.1537084e-06 -1.0831743e-06)
(8.8346323e-07 -3.4132622e-06 -6.2819979e-07)
(6.1120754e-07 -2.1455678e-06 -3.9407879e-07)
(4.8385584e-07 -1.1776441e-06 -2.8294006e-07)
(4.4079319e-07 -3.7327293e-07 -2.3893752e-07)
)
;
    }
    procBoundary6to8throughstreamwiseIn
    {
        type            processorCyclic;
        value           nonuniform List<vector> 
25
(
(2.5670472e-06 5.6304054e-06 -1.8592536e-07)
(1.6319246e-06 3.4995323e-06 -8.2661146e-08)
(1.0765732e-06 2.1435152e-06 -1.825641e-08)
(7.5879411e-07 1.1764495e-06 1.07432e-08)
(6.0876455e-07 3.7666721e-07 2.2427038e-08)
(2.6351709e-06 5.7020944e-06 1.5743722e-07)
(1.6759747e-06 3.5323068e-06 1.2674326e-07)
(1.1098709e-06 2.1430455e-06 1.0495953e-07)
(7.9168574e-07 1.1574983e-06 7.3022365e-08)
(6.4298293e-07 3.6668982e-07 5.0592007e-08)
(2.5205845e-06 5.5540471e-06 4.7122039e-07)
(1.6160086e-06 3.4470546e-06 2.9361483e-07)
(1.078255e-06 2.0897943e-06 1.9032168e-07)
(7.7391896e-07 1.1221135e-06 1.2099046e-07)
(6.3006448e-07 3.5427948e-07 8.471055e-08)
(2.2569328e-06 5.2219602e-06 7.3135602e-07)
(1.4736333e-06 3.2514081e-06 4.4143587e-07)
(9.918294e-07 1.9704211e-06 2.5997431e-07)
(7.0859436e-07 1.0519488e-06 1.4564091e-07)
(5.7179839e-07 3.3047945e-07 8.7882648e-08)
(1.9115672e-06 4.7897047e-06 7.8309748e-07)
(1.2799793e-06 2.9756729e-06 4.7378729e-07)
(8.6706494e-07 1.7939994e-06 2.7745969e-07)
(6.0916195e-07 9.5009817e-07 1.5473998e-07)
(4.8150614e-07 2.9660636e-07 9.325359e-08)
)
;
    }
    procBoundary6to15
    {
        type            processor;
        value           nonuniform List<vector> 
25
(
(3.3937277e-06 3.2723034e-06 4.9797562e-07)
(4.4041491e-06 1.6859474e-06 4.8637886e-08)
(4.6964308e-06 -1.5658216e-07 -3.675773e-07)
(4.1949132e-06 -1.9805001e-06 -7.0460081e-07)
(3.0090107e-06 -3.5156656e-06 -9.2769867e-07)
(2.3360171e-06 2.0188298e-06 2.8714685e-07)
(3.0545664e-06 1.0035228e-06 1.1595915e-08)
(3.2279719e-06 -2.1106775e-07 -2.3319473e-07)
(2.845642e-06 -1.4169784e-06 -4.1947612e-07)
(2.0179682e-06 -2.4276021e-06 -5.2978356e-07)
(1.6514802e-06 1.1956047e-06 1.5600582e-07)
(2.1742515e-06 5.4931674e-07 -1.2480718e-08)
(2.2759295e-06 -2.1567419e-07 -1.5125918e-07)
(1.9783789e-06 -9.6561397e-07 -2.4981106e-07)
(1.3928359e-06 -1.5898872e-06 -3.0101259e-07)
(1.2339601e-06 6.123091e-07 7.8936131e-08)
(1.6432875e-06 2.5058194e-07 -2.0735525e-08)
(1.7130411e-06 -1.6666384e-07 -9.8506334e-08)
(1.4714288e-06 -5.7020657e-07 -1.5216648e-07)
(1.0366569e-06 -9.0475366e-07 -1.7643427e-07)
(1.034129e-06 1.8584021e-07 4.641586e-08)
(1.39491e-06 6.9416897e-08 -1.6106325e-08)
(1.4545864e-06 -6.2107925e-08 -6.8619809e-08)
(1.2396544e-06 -1.8843083e-07 -1.0716836e-07)
(8.7751235e-07 -2.9320996e-07 -1.2306932e-07)
)
;
    }
    procBoundary6to24throughfront
    {
        type            processorCyclic;
        value           nonuniform List<vector> 
25
(
(4.3146144e-06 3.8004376e-06 -2.5967255e-07)
(2.8834336e-06 2.3899027e-06 -1.3278889e-07)
(2.0042714e-06 1.4822318e-06 -6.1098014e-08)
(1.4654034e-06 8.1390525e-07 -1.2407876e-08)
(1.2042352e-06 2.5964438e-07 1.1239727e-08)
(5.4408157e-06 1.6949798e-06 2.2793787e-08)
(3.7097149e-06 1.0542949e-06 5.5340207e-08)
(2.6023623e-06 6.3161083e-07 6.4674793e-08)
(1.9099324e-06 3.169348e-07 6.4937835e-08)
(1.574785e-06 9.4057919e-08 5.5851014e-08)
(5.6267938e-06 -6.1709353e-07 3.2180739e-07)
(3.8389708e-06 -4.4855065e-07 2.3403203e-07)
(2.6924024e-06 -3.1755069e-07 1.7295008e-07)
(2.0055055e-06 -2.1322772e-07 1.270692e-07)
(1.6922381e-06 -7.4979626e-08 9.6692967e-08)
(4.9072585e-06 -2.829173e-06 5.7265127e-07)
(3.3382737e-06 -1.8800965e-06 3.7125428e-07)
(2.343346e-06 -1.2018543e-06 2.481841e-07)
(1.7740382e-06 -6.8257324e-07 1.7175017e-07)
(1.5219403e-06 -2.1848954e-07 1.329634e-07)
(3.3999831e-06 -4.6268207e-06 7.1577586e-07)
(2.2810383e-06 -3.0124631e-06 4.3386776e-07)
(1.6069331e-06 -1.8817861e-06 2.7600517e-07)
(1.2583476e-06 -1.0338816e-06 1.9734612e-07)
(1.1172435e-06 -3.2628398e-07 1.6740641e-07)
)
;
    }
}


// ************************************************************************* //
