# Coordinates of a bcc lattice for 497 spheres of diameter 0.001745
1 atom types
497 atoms
#porosity is xxx
0.0 0.00702476 xlo xhi
0.0 0.00702476 ylo yhi
0.0 0.00702476 zlo zhi

Atoms

1 1 0.001745 30000000000 0.001658 0.000175 0.004878
2 1 0.001718 30000000000 0.001553 0.003427 0.002543
3 1 0.001718 30000000000 0.003380 0.000309 0.003707
4 1 0.001664 30000000000 0.000467 0.006594 0.006076
5 1 0.001663 30000000000 0.004226 0.005973 0.004297
6 1 0.001656 30000000000 0.005474 0.004592 0.004972
7 1 0.001613 30000000000 0.001332 0.003409 0.000612
8 1 0.001609 30000000000 0.000685 0.002024 0.005021
9 1 0.001586 30000000000 0.003141 0.003360 0.004599
10 1 0.001573 30000000000 0.006459 0.003786 0.006842
11 1 0.001573 30000000000 0.006890 0.005895 0.000432
12 1 0.001570 30000000000 0.005850 0.000461 0.006978
13 1 0.001549 30000000000 0.006491 0.001070 0.002760
14 1 0.001531 30000000000 0.003033 0.000744 0.000488
15 1 0.001528 30000000000 0.006025 0.006725 0.002100
16 1 0.001524 30000000000 0.006847 0.002788 0.001628
17 1 0.001524 30000000000 0.002506 0.002024 0.006467
18 1 0.001490 30000000000 0.002780 0.002181 0.002897
19 1 0.001472 30000000000 0.002994 0.004973 0.004354
20 1 0.001465 30000000000 0.004976 0.004314 0.001893
21 1 0.001464 30000000000 0.001242 0.005288 0.006506
22 1 0.001454 30000000000 0.004089 0.003573 0.002975
23 1 0.001453 30000000000 0.005003 0.000214 0.003402
24 1 0.001449 30000000000 0.000017 0.004264 0.003714
25 1 0.001446 30000000000 0.003707 0.004589 0.000922
26 1 0.001433 30000000000 0.000893 0.007016 0.002090
27 1 0.001433 30000000000 0.002323 0.005309 0.002336
28 1 0.001429 30000000000 0.005581 0.001854 0.000795
29 1 0.001428 30000000000 0.004232 0.001671 0.004634
30 1 0.001418 30000000000 0.003175 0.004928 0.006487
31 1 0.001410 30000000000 0.000414 0.003947 0.005595
32 1 0.001379 30000000000 0.001851 0.005211 0.005179
33 1 0.001356 30000000000 0.006360 0.000602 0.004172
34 1 0.001356 30000000000 0.006062 0.005870 0.004092
35 1 0.001351 30000000000 0.005002 0.006425 0.006135
36 1 0.001310 30000000000 0.000596 0.005646 0.004933
37 1 0.001303 30000000000 0.006897 0.002600 0.006150
38 1 0.001265 30000000000 0.004597 0.001497 0.003043
39 1 0.001258 30000000000 0.002123 0.001070 0.003438
40 1 0.001256 30000000000 0.005169 0.000687 0.004754
41 1 0.001255 30000000000 0.001340 0.002040 0.003136
42 1 0.001251 30000000000 0.003813 0.006537 0.001474
43 1 0.001247 30000000000 0.006815 0.002980 0.004068
44 1 0.001242 30000000000 0.001773 0.002940 0.004687
45 1 0.001239 30000000000 0.004204 0.006290 0.002878
46 1 0.001232 30000000000 0.006263 0.005408 0.005940
47 1 0.001225 30000000000 0.004817 0.003122 0.004100
48 1 0.001212 30000000000 0.003970 0.002621 0.005556
49 1 0.001212 30000000000 0.001353 0.001966 0.000993
50 1 0.001199 30000000000 0.002522 0.006353 0.000659
51 1 0.001197 30000000000 0.000458 0.004576 0.000327
52 1 0.001191 30000000000 0.005470 0.003131 0.002338
53 1 0.001184 30000000000 0.002806 0.006287 0.004618
54 1 0.001176 30000000000 0.000995 0.004690 0.001995
55 1 0.001171 30000000000 0.003620 0.002708 0.006816
56 1 0.001170 30000000000 0.002529 0.006738 0.006491
57 1 0.001170 30000000000 0.000199 0.001150 0.006009
58 1 0.001148 30000000000 0.001389 0.006339 0.003101
59 1 0.001141 30000000000 0.005330 0.005174 0.006683
60 1 0.001141 30000000000 0.006905 0.003918 0.002344
61 1 0.001138 30000000000 0.001185 0.004623 0.003268
62 1 0.001135 30000000000 0.004205 0.001130 0.001804
63 1 0.001130 30000000000 0.004136 0.005125 0.002473
64 1 0.001118 30000000000 0.000548 0.000074 0.000378
65 1 0.001113 30000000000 0.005759 0.004716 0.002899
66 1 0.001111 30000000000 0.002839 0.000980 0.004949
67 1 0.001111 30000000000 0.002069 0.000178 0.002574
68 1 0.001110 30000000000 0.004473 0.003936 0.005778
69 1 0.001108 30000000000 0.006822 0.005789 0.002874
70 1 0.001107 30000000000 0.006033 0.001690 0.004744
71 1 0.001104 30000000000 0.006898 0.001793 0.003932
72 1 0.001089 30000000000 0.003571 0.000217 0.006315
73 1 0.001089 30000000000 0.004243 0.001341 0.006336
74 1 0.001086 30000000000 0.001870 0.001505 0.002187
75 1 0.001086 30000000000 0.002327 0.004138 0.001331
76 1 0.001086 30000000000 0.000949 0.005382 0.001010
77 1 0.001084 30000000000 0.005289 0.005616 0.001962
78 1 0.001081 30000000000 0.005577 0.004038 0.000794
79 1 0.001080 30000000000 0.000729 0.005771 0.002299
80 1 0.001078 30000000000 0.002274 0.003887 0.003719
81 1 0.001074 30000000000 0.002711 0.004289 0.005474
82 1 0.001066 30000000000 0.003754 0.002554 0.003666
83 1 0.001065 30000000000 0.002776 0.006401 0.002834
84 1 0.001062 30000000000 0.002154 0.004194 0.006390
85 1 0.001062 30000000000 0.003502 0.006542 0.005467
86 1 0.001059 30000000000 0.003462 0.001608 0.005627
87 1 0.001057 30000000000 0.002848 0.003385 0.006329
88 1 0.001057 30000000000 0.005231 0.002216 0.006668
89 1 0.001056 30000000000 0.002016 0.005143 0.001068
90 1 0.001043 30000000000 0.005286 0.001057 0.002118
91 1 0.001040 30000000000 0.004251 0.004057 0.004719
92 1 0.001020 30000000000 0.003581 0.006368 0.000051
93 1 0.001019 30000000000 0.003870 0.001705 0.000287
94 1 0.001016 30000000000 0.000284 0.002979 0.002817
95 1 0.001011 30000000000 0.001559 0.001078 0.000349
96 1 0.001007 30000000000 0.003502 0.003809 0.001870
97 1 0.001005 30000000000 0.002290 0.002503 0.001794
98 1 0.001001 30000000000 0.004815 0.002301 0.001922
99 1 0.000999 30000000000 0.000155 0.000575 0.001256
100 1 0.000995 30000000000 0.002061 0.000697 0.006565
101 1 0.000994 30000000000 0.001692 0.000061 0.000383
102 1 0.000993 30000000000 0.001479 0.004137 0.004777
103 1 0.000975 30000000000 0.005238 0.002484 0.004902
104 1 0.000969 30000000000 0.004859 0.002004 0.005707
105 1 0.000969 30000000000 0.002254 0.002481 0.000600
106 1 0.000962 30000000000 0.000150 0.006275 0.003727
107 1 0.000960 30000000000 0.004880 0.006310 0.000740
108 1 0.000956 30000000000 0.006104 0.000739 0.001316
109 1 0.000950 30000000000 0.000519 0.000566 0.004021
110 1 0.000939 30000000000 0.000061 0.004769 0.001312
111 1 0.000937 30000000000 0.000119 0.003768 0.000937
112 1 0.000935 30000000000 0.004589 0.002384 0.000415
113 1 0.000934 30000000000 0.000395 0.001886 0.002283
114 1 0.000929 30000000000 0.001942 0.002068 0.005372
115 1 0.000924 30000000000 0.005170 0.004888 0.003730
116 1 0.000922 30000000000 0.005466 0.001299 0.003769
117 1 0.000920 30000000000 0.001631 0.005972 0.004232
118 1 0.000920 30000000000 0.006243 0.000842 0.005779
119 1 0.000912 30000000000 0.001394 0.000272 0.003578
120 1 0.000909 30000000000 0.002748 0.004168 0.000287
121 1 0.000905 30000000000 0.005818 0.002959 0.005486
122 1 0.000900 30000000000 0.001233 0.001449 0.004036
123 1 0.000900 30000000000 0.002939 0.003803 0.002776
124 1 0.000897 30000000000 0.006881 0.001539 0.001413
125 1 0.000896 30000000000 0.002691 0.006540 0.001770
126 1 0.000895 30000000000 0.004281 0.006988 0.000502
127 1 0.000894 30000000000 0.006254 0.005283 0.002220
128 1 0.000885 30000000000 0.001470 0.001411 0.006340
129 1 0.000884 30000000000 0.006029 0.002111 0.002260
130 1 0.000878 30000000000 0.004566 0.004224 0.003821
131 1 0.000873 30000000000 0.002125 0.002865 0.003659
132 1 0.000871 30000000000 0.005041 0.001097 0.005757
133 1 0.000867 30000000000 0.003949 0.004837 0.005612
134 1 0.000866 30000000000 0.001623 0.006346 0.006842
135 1 0.000866 30000000000 0.005526 0.004223 0.006188
136 1 0.000863 30000000000 0.005276 0.003156 0.001151
137 1 0.000862 30000000000 0.006145 0.003473 0.004830
138 1 0.000858 30000000000 0.000798 0.002692 0.006777
139 1 0.000853 30000000000 0.004286 0.000476 0.005695
140 1 0.000850 30000000000 0.005342 0.003106 0.000095
141 1 0.000850 30000000000 0.003628 0.002412 0.000936
142 1 0.000849 30000000000 0.002445 0.003178 0.001158
143 1 0.000846 30000000000 0.005591 0.006425 0.005117
144 1 0.000844 30000000000 0.004568 0.004420 0.000155
145 1 0.000842 30000000000 0.003497 0.005553 0.005351
146 1 0.000840 30000000000 0.003361 0.001787 0.001814
147 1 0.000840 30000000000 0.003452 0.000569 0.002276
148 1 0.000838 30000000000 0.004565 0.005765 0.006948
149 1 0.000838 30000000000 0.003659 0.002849 0.001790
150 1 0.000838 30000000000 0.000881 0.005728 0.003803
151 1 0.000836 30000000000 0.006652 0.006896 0.005194
152 1 0.000835 30000000000 0.005867 0.002845 0.006359
153 1 0.000832 30000000000 0.001031 0.003503 0.006442
154 1 0.000829 30000000000 0.002634 0.006187 0.005607
155 1 0.000828 30000000000 0.000773 0.001913 0.006343
156 1 0.000825 30000000000 0.006396 0.006079 0.005113
157 1 0.000825 30000000000 0.005111 0.004882 0.000724
158 1 0.000823 30000000000 0.005227 0.003829 0.003028
159 1 0.000820 30000000000 0.002714 0.003332 0.001934
160 1 0.000818 30000000000 0.006410 0.001507 0.000115
161 1 0.000818 30000000000 0.005970 0.005860 0.001273
162 1 0.000817 30000000000 0.002792 0.005257 0.000460
163 1 0.000816 30000000000 0.003203 0.006020 0.006237
164 1 0.000813 30000000000 0.005284 0.006259 0.002887
165 1 0.000811 30000000000 0.005390 0.002185 0.003214
166 1 0.000808 30000000000 0.006306 0.004991 0.006893
167 1 0.000806 30000000000 0.006909 0.002518 0.000454
168 1 0.000802 30000000000 0.005695 0.005009 0.001313
169 1 0.000802 30000000000 0.004491 0.003707 0.001015
170 1 0.000800 30000000000 0.001516 0.002292 0.000009
171 1 0.000798 30000000000 0.004864 0.000253 0.001109
172 1 0.000798 30000000000 0.006390 0.004123 0.001373
173 1 0.000795 30000000000 0.000901 0.006669 0.004001
174 1 0.000794 30000000000 0.006680 0.002299 0.002770
175 1 0.000792 30000000000 0.006366 0.004300 0.005773
176 1 0.000791 30000000000 0.005775 0.002869 0.003784
177 1 0.000791 30000000000 0.003662 0.001561 0.003659
178 1 0.000787 30000000000 0.002020 0.000713 0.001092
179 1 0.000783 30000000000 0.000341 0.002035 0.000920
180 1 0.000783 30000000000 0.005599 0.006875 0.004301
181 1 0.000781 30000000000 0.005971 0.006054 0.006666
182 1 0.000780 30000000000 0.006661 0.005509 0.001522
183 1 0.000778 30000000000 0.000253 0.005375 0.005931
184 1 0.000777 30000000000 0.000431 0.006933 0.003197
185 1 0.000775 30000000000 0.000132 0.001905 0.006931
186 1 0.000772 30000000000 0.006988 0.002970 0.005158
187 1 0.000772 30000000000 0.000141 0.000483 0.005298
188 1 0.000768 30000000000 0.004253 0.002919 0.001080
189 1 0.000767 30000000000 0.002904 0.001011 0.002785
190 1 0.000766 30000000000 0.003910 0.005517 0.001560
191 1 0.000766 30000000000 0.004459 0.000348 0.006625
192 1 0.000765 30000000000 0.006786 0.006812 0.001162
193 1 0.000762 30000000000 0.004667 0.000294 0.001876
194 1 0.000762 30000000000 0.002892 0.002239 0.005112
195 1 0.000761 30000000000 0.003589 0.003913 0.006170
196 1 0.000761 30000000000 0.004871 0.003170 0.006253
197 1 0.000760 30000000000 0.001599 0.002920 0.005716
198 1 0.000759 30000000000 0.003245 0.003427 0.000361
199 1 0.000758 30000000000 0.001762 0.006040 0.001199
200 1 0.000751 30000000000 0.005281 0.002058 0.004146
201 1 0.000742 30000000000 0.002965 0.005319 0.003291
202 1 0.000740 30000000000 0.005814 0.005225 0.000472
203 1 0.000738 30000000000 0.004120 0.000524 0.004815
204 1 0.000736 30000000000 0.003371 0.005724 0.002576
205 1 0.000735 30000000000 0.006024 0.001486 0.001715
206 1 0.000733 30000000000 0.004070 0.002004 0.001490
207 1 0.000731 30000000000 0.000969 0.006298 0.000668
208 1 0.000730 30000000000 0.000675 0.001515 0.001579
209 1 0.000729 30000000000 0.003475 0.005636 0.000531
210 1 0.000729 30000000000 0.001492 0.000868 0.001634
211 1 0.000728 30000000000 0.004638 0.005162 0.001277
212 1 0.000728 30000000000 0.003048 0.000976 0.006346
213 1 0.000728 30000000000 0.002215 0.001631 0.000504
214 1 0.000727 30000000000 0.006877 0.006417 0.004581
215 1 0.000725 30000000000 0.000852 0.002990 0.005780
216 1 0.000724 30000000000 0.006872 0.000754 0.000443
217 1 0.000721 30000000000 0.002893 0.005557 0.001201
218 1 0.000719 30000000000 0.001585 0.001303 0.005498
219 1 0.000719 30000000000 0.005405 0.005984 0.000149
220 1 0.000718 30000000000 0.003217 0.004823 0.001951
221 1 0.000715 30000000000 0.002044 0.003605 0.005365
222 1 0.000715 30000000000 0.006911 0.004803 0.006397
223 1 0.000713 30000000000 0.005352 0.004009 0.003827
224 1 0.000713 30000000000 0.001878 0.001633 0.004624
225 1 0.000712 30000000000 0.003115 0.003655 0.001080
226 1 0.000710 30000000000 0.004301 0.003201 0.000300
227 1 0.000709 30000000000 0.001977 0.004404 0.000455
228 1 0.000706 30000000000 0.005024 0.003319 0.005404
229 1 0.000704 30000000000 0.003029 0.002778 0.005701
230 1 0.000704 30000000000 0.006005 0.003878 0.003434
231 1 0.000703 30000000000 0.003776 0.000475 0.001305
232 1 0.000701 30000000000 0.000639 0.001227 0.000319
233 1 0.000699 30000000000 0.002921 0.006047 0.003702
234 1 0.000699 30000000000 0.006359 0.005068 0.003506
235 1 0.000697 30000000000 0.002715 0.002943 0.000064
236 1 0.000696 30000000000 0.006348 0.006453 0.005776
237 1 0.000693 30000000000 0.002910 0.000394 0.001608
238 1 0.000692 30000000000 0.002908 0.003097 0.003498
239 1 0.000691 30000000000 0.004991 0.005695 0.005245
240 1 0.000687 30000000000 0.002823 0.005841 0.006895
241 1 0.000686 30000000000 0.006772 0.005092 0.004336
242 1 0.000684 30000000000 0.006040 0.000328 0.005160
243 1 0.000682 30000000000 0.005747 0.003521 0.004168
244 1 0.000681 30000000000 0.000689 0.003481 0.004296
245 1 0.000679 30000000000 0.002115 0.005020 0.003448
246 1 0.000678 30000000000 0.000466 0.000080 0.004682
247 1 0.000678 30000000000 0.000295 0.001766 0.003094
248 1 0.000677 30000000000 0.000114 0.004920 0.002251
249 1 0.000677 30000000000 0.003018 0.002822 0.000689
250 1 0.000676 30000000000 0.001111 0.004005 0.003995
251 1 0.000676 30000000000 0.006245 0.003282 0.000811
252 1 0.000674 30000000000 0.001517 0.000187 0.001261
253 1 0.000673 30000000000 0.005084 0.005805 0.003495
254 1 0.000673 30000000000 0.004593 0.005269 0.005762
255 1 0.000672 30000000000 0.002130 0.005814 0.003480
256 1 0.000671 30000000000 0.005299 0.001880 0.002486
257 1 0.000669 30000000000 0.003682 0.005369 0.003284
258 1 0.000669 30000000000 0.005949 0.006465 0.000761
259 1 0.000667 30000000000 0.005135 0.001379 0.006472
260 1 0.000662 30000000000 0.002333 0.006778 0.003973
261 1 0.000661 30000000000 0.002266 0.005453 0.006110
262 1 0.000661 30000000000 0.005066 0.003847 0.000085
263 1 0.000661 30000000000 0.005996 0.002241 0.005796
264 1 0.000660 30000000000 0.000948 0.000757 0.001027
265 1 0.000659 30000000000 0.001009 0.001265 0.002198
266 1 0.000658 30000000000 0.001221 0.003302 0.003806
267 1 0.000658 30000000000 0.004175 0.003987 0.006667
268 1 0.000657 30000000000 0.006296 0.004660 0.000638
269 1 0.000656 30000000000 0.006086 0.001656 0.006092
270 1 0.000655 30000000000 0.000822 0.000927 0.002846
271 1 0.000655 30000000000 0.005943 0.005824 0.002711
272 1 0.000653 30000000000 0.006164 0.002198 0.006858
273 1 0.000652 30000000000 0.004842 0.000959 0.006927
274 1 0.000651 30000000000 0.004530 0.005883 0.001364
275 1 0.000651 30000000000 0.000232 0.005291 0.003779
276 1 0.000651 30000000000 0.006289 0.003351 0.002770
277 1 0.000651 30000000000 0.001424 0.003823 0.005870
278 1 0.000651 30000000000 0.004417 0.004670 0.003188
279 1 0.000651 30000000000 0.004471 0.004823 0.004408
280 1 0.000649 30000000000 0.001441 0.004819 0.000490
281 1 0.000648 30000000000 0.004331 0.006299 0.005403
282 1 0.000646 30000000000 0.000554 0.004357 0.004629
283 1 0.000645 30000000000 0.003992 0.005253 0.000116
284 1 0.000645 30000000000 0.004036 0.006019 0.000703
285 1 0.000643 30000000000 0.004558 0.001180 0.000659
286 1 0.000641 30000000000 0.002462 0.003048 0.005455
287 1 0.000639 30000000000 0.002895 0.002057 0.003975
288 1 0.000639 30000000000 0.004590 0.005307 0.003360
289 1 0.000638 30000000000 0.004511 0.002492 0.002943
290 1 0.000637 30000000000 0.005038 0.000253 0.005590
291 1 0.000636 30000000000 0.003240 0.004564 0.003189
292 1 0.000636 30000000000 0.000976 0.004848 0.005524
293 1 0.000632 30000000000 0.003756 0.002072 0.002491
294 1 0.000631 30000000000 0.004454 0.005884 0.002033
295 1 0.000630 30000000000 0.004784 0.004530 0.006371
296 1 0.000629 30000000000 0.003070 0.005878 0.001897
297 1 0.000629 30000000000 0.004381 0.000767 0.004116
298 1 0.000628 30000000000 0.002262 0.001101 0.005841
299 1 0.000627 30000000000 0.000506 0.000651 0.006703
300 1 0.000626 30000000000 0.000498 0.001106 0.003399
301 1 0.000625 30000000000 0.004036 0.000734 0.002792
302 1 0.000624 30000000000 0.000259 0.005022 0.002958
303 1 0.000623 30000000000 0.005990 0.003766 0.001840
304 1 0.000623 30000000000 0.001827 0.004245 0.005566
305 1 0.000623 30000000000 0.001564 0.000029 0.006555
306 1 0.000623 30000000000 0.002743 0.001443 0.001584
307 1 0.000622 30000000000 0.005234 0.002893 0.003277
308 1 0.000621 30000000000 0.005435 0.006916 0.000832
309 1 0.000620 30000000000 0.002371 0.002102 0.004613
310 1 0.000618 30000000000 0.004738 0.002331 0.003548
311 1 0.000617 30000000000 0.000532 0.003363 0.003589
312 1 0.000615 30000000000 0.002695 0.000678 0.002204
313 1 0.000615 30000000000 0.000030 0.006155 0.001694
314 1 0.000615 30000000000 0.002132 0.005288 0.000155
315 1 0.000615 30000000000 0.005449 0.003533 0.006506
316 1 0.000614 30000000000 0.002006 0.002853 0.006944
317 1 0.000613 30000000000 0.004227 0.000199 0.002459
318 1 0.000613 30000000000 0.006970 0.004885 0.005544
319 1 0.000611 30000000000 0.003482 0.000196 0.004912
320 1 0.000609 30000000000 0.003250 0.003131 0.002374
321 1 0.000609 30000000000 0.002578 0.000049 0.005640
322 1 0.000606 30000000000 0.001239 0.004270 0.006750
323 1 0.000606 30000000000 0.002971 0.004536 0.002547
324 1 0.000606 30000000000 0.006684 0.004800 0.002779
325 1 0.000605 30000000000 0.002956 0.001429 0.003831
326 1 0.000604 30000000000 0.005996 0.004607 0.001949
327 1 0.000604 30000000000 0.002258 0.003485 0.006956
328 1 0.000603 30000000000 0.006085 0.002054 0.003137
329 1 0.000602 30000000000 0.006811 0.001099 0.005147
330 1 0.000601 30000000000 0.005846 0.000055 0.005951
331 1 0.000601 30000000000 0.001306 0.005479 0.002955
332 1 0.000601 30000000000 0.004517 0.002772 0.006732
333 1 0.000601 30000000000 0.004945 0.005599 0.002860
334 1 0.000601 30000000000 0.004579 0.003378 0.002089
335 1 0.000600 30000000000 0.001013 0.002757 0.001462
336 1 0.000600 30000000000 0.003168 0.000309 0.005533
337 1 0.000600 30000000000 0.003426 0.003340 0.005701
338 1 0.000600 30000000000 0.001337 0.003458 0.005334
339 1 0.000600 30000000000 0.002189 0.000123 0.003480
340 1 0.000600 30000000000 0.003698 0.003938 0.000080
341 1 0.000599 30000000000 0.005739 0.001489 0.005555
342 1 0.000599 30000000000 0.001431 0.000782 0.002718
343 1 0.000598 30000000000 0.004789 0.000505 0.000345
344 1 0.000596 30000000000 0.006506 0.003335 0.005638
345 1 0.000596 30000000000 0.006660 0.004811 0.004983
346 1 0.000595 30000000000 0.005968 0.002516 0.004361
347 1 0.000595 30000000000 0.003608 0.001353 0.002788
348 1 0.000594 30000000000 0.006809 0.000417 0.006471
349 1 0.000593 30000000000 0.003948 0.004619 0.004062
350 1 0.000591 30000000000 0.004686 0.001725 0.001383
351 1 0.000591 30000000000 0.004285 0.006658 0.006787
352 1 0.000590 30000000000 0.007023 0.001562 0.000522
353 1 0.000590 30000000000 0.006637 0.001980 0.000852
354 1 0.000589 30000000000 0.003909 0.000752 0.006881
355 1 0.000588 30000000000 0.001645 0.005008 0.004227
356 1 0.000588 30000000000 0.004201 0.002561 0.002368
357 1 0.000586 30000000000 0.003549 0.004380 0.002467
358 1 0.000586 30000000000 0.001010 0.004780 0.004877
359 1 0.000584 30000000000 0.004280 0.005733 0.006057
360 1 0.000584 30000000000 0.003248 0.001901 0.004608
361 1 0.000582 30000000000 0.003099 0.001979 0.000361
362 1 0.000582 30000000000 0.000073 0.000165 0.002654
363 1 0.000581 30000000000 0.002396 0.001368 0.001079
364 1 0.000581 30000000000 0.001322 0.002560 0.003972
365 1 0.000579 30000000000 0.003691 0.002666 0.002712
366 1 0.000577 30000000000 0.003472 0.004307 0.005071
367 1 0.000577 30000000000 0.005429 0.000767 0.000909
368 1 0.000576 30000000000 0.000697 0.002273 0.003951
369 1 0.000576 30000000000 0.001953 0.006002 0.006153
370 1 0.000575 30000000000 0.003791 0.001942 0.003086
371 1 0.000575 30000000000 0.003946 0.004490 0.001925
372 1 0.000574 30000000000 0.000092 0.006927 0.004209
373 1 0.000573 30000000000 0.002283 0.001013 0.001654
374 1 0.000572 30000000000 0.006319 0.002955 0.003291
375 1 0.000571 30000000000 0.002739 0.001660 0.004425
376 1 0.000571 30000000000 0.005592 0.002492 0.001706
377 1 0.000569 30000000000 0.001367 0.006611 0.001147
378 1 0.000569 30000000000 0.006105 0.004056 0.004101
379 1 0.000565 30000000000 0.003117 0.004167 0.003723
380 1 0.000564 30000000000 0.002804 0.005220 0.005381
381 1 0.000563 30000000000 0.005592 0.000501 0.005569
382 1 0.000562 30000000000 0.004178 0.000688 0.000446
383 1 0.000562 30000000000 0.000580 0.001331 0.000960
384 1 0.000561 30000000000 0.002184 0.001771 0.001432
385 1 0.000561 30000000000 0.002090 0.004497 0.004305
386 1 0.000560 30000000000 0.001129 0.004654 0.004123
387 1 0.000560 30000000000 0.005397 0.000425 0.001626
388 1 0.000559 30000000000 0.001474 0.005900 0.000538
389 1 0.000557 30000000000 0.001202 0.001871 0.001878
390 1 0.000556 30000000000 0.000114 0.000911 0.004637
391 1 0.000556 30000000000 0.002362 0.004728 0.000015
392 1 0.000556 30000000000 0.005833 0.003683 0.005815
393 1 0.000556 30000000000 0.003291 0.001340 0.004321
394 1 0.000555 30000000000 0.000684 0.000876 0.005284
395 1 0.000555 30000000000 0.006491 0.002490 0.005271
396 1 0.000551 30000000000 0.002153 0.006445 0.003466
397 1 0.000551 30000000000 0.004054 0.006925 0.004982
398 1 0.000551 30000000000 0.006457 0.004199 0.004655
399 1 0.000550 30000000000 0.006810 0.006696 0.002830
400 1 0.000549 30000000000 0.000468 0.003337 0.006832
401 1 0.000547 30000000000 0.004679 0.003111 0.001588
402 1 0.000546 30000000000 0.002390 0.004288 0.002966
403 1 0.000546 30000000000 0.006556 0.006936 0.000524
404 1 0.000546 30000000000 0.006523 0.006911 0.003542
405 1 0.000545 30000000000 0.001116 0.001762 0.000124
406 1 0.000545 30000000000 0.002094 0.006145 0.005158
407 1 0.000544 30000000000 0.000566 0.002345 0.000339
408 1 0.000543 30000000000 0.001077 0.006155 0.001290
409 1 0.000543 30000000000 0.005014 0.006680 0.004744
410 1 0.000542 30000000000 0.000841 0.002853 0.003680
411 1 0.000542 30000000000 0.001760 0.006547 0.005918
412 1 0.000541 30000000000 0.004266 0.001607 0.000954
413 1 0.000541 30000000000 0.000874 0.006229 0.000014
414 1 0.000539 30000000000 0.003071 0.002479 0.001963
415 1 0.000539 30000000000 0.004210 0.005461 0.000907
416 1 0.000539 30000000000 0.000443 0.004465 0.002807
417 1 0.000539 30000000000 0.002815 0.002005 0.001330
418 1 0.000538 30000000000 0.005499 0.005750 0.000791
419 1 0.000538 30000000000 0.004995 0.000877 0.001376
420 1 0.000537 30000000000 0.001308 0.000549 0.006211
421 1 0.000537 30000000000 0.003829 0.004728 0.004911
422 1 0.000537 30000000000 0.001856 0.002318 0.004056
423 1 0.000536 30000000000 0.005848 0.002757 0.001197
424 1 0.000536 30000000000 0.001262 0.005799 0.001653
425 1 0.000535 30000000000 0.002142 0.003806 0.004536
426 1 0.000534 30000000000 0.005699 0.001232 0.006271
427 1 0.000534 30000000000 0.000663 0.005322 0.003264
428 1 0.000534 30000000000 0.004889 0.005013 0.002939
429 1 0.000534 30000000000 0.005117 0.001027 0.000484
430 1 0.000533 30000000000 0.005993 0.006460 0.000161
431 1 0.000533 30000000000 0.006991 0.006879 0.001777
432 1 0.000532 30000000000 0.005469 0.003429 0.003530
433 1 0.000532 30000000000 0.004911 0.006309 0.005159
434 1 0.000531 30000000000 0.004635 0.007019 0.004369
435 1 0.000531 30000000000 0.006361 0.004963 0.001160
436 1 0.000531 30000000000 0.005807 0.001568 0.006836
437 1 0.000530 30000000000 0.001746 0.005969 0.001873
438 1 0.000529 30000000000 0.002347 0.000122 0.001383
439 1 0.000529 30000000000 0.006565 0.001521 0.005476
440 1 0.000529 30000000000 0.003470 0.006322 0.002344
441 1 0.000528 30000000000 0.005663 0.005665 0.005125
442 1 0.000528 30000000000 0.005329 0.003494 0.004753
443 1 0.000527 30000000000 0.000809 0.001091 0.004504
444 1 0.000526 30000000000 0.004286 0.003591 0.001655
445 1 0.000526 30000000000 0.004223 0.005705 0.005366
446 1 0.000526 30000000000 0.002202 0.002976 0.006008
447 1 0.000526 30000000000 0.005229 0.001581 0.005082
448 1 0.000525 30000000000 0.006082 0.006650 0.006304
449 1 0.000525 30000000000 0.005174 0.005518 0.001158
450 1 0.000523 30000000000 0.001500 0.002347 0.006161
451 1 0.000523 30000000000 0.004176 0.003147 0.006285
452 1 0.000523 30000000000 0.002921 0.005572 0.005782
453 1 0.000523 30000000000 0.003954 0.006054 0.006413
454 1 0.000522 30000000000 0.004977 0.001511 0.000075
455 1 0.000521 30000000000 0.005185 0.005487 0.005904
456 1 0.000520 30000000000 0.000511 0.000987 0.001976
457 1 0.000520 30000000000 0.000553 0.006196 0.001421
458 1 0.000519 30000000000 0.005046 0.000462 0.006199
459 1 0.000517 30000000000 0.003771 0.005666 0.006781
460 1 0.000516 30000000000 0.003688 0.000875 0.005343
461 1 0.000516 30000000000 0.004270 0.005057 0.004939
462 1 0.000515 30000000000 0.004992 0.004836 0.005922
463 1 0.000515 30000000000 0.004385 0.002674 0.004730
464 1 0.000515 30000000000 0.005487 0.004332 0.006934
465 1 0.000514 30000000000 0.001178 0.003965 0.001537
466 1 0.000514 30000000000 0.003745 0.003370 0.001238
467 1 0.000514 30000000000 0.001322 0.006191 0.005369
468 1 0.000514 30000000000 0.004898 0.004417 0.002880
469 1 0.000513 30000000000 0.004325 0.003281 0.004857
470 1 0.000513 30000000000 0.005924 0.002734 0.000270
471 1 0.000513 30000000000 0.003691 0.003186 0.000761
472 1 0.000513 30000000000 0.000797 0.002621 0.001971
473 1 0.000513 30000000000 0.002031 0.001830 0.003913
474 1 0.000513 30000000000 0.001409 0.005449 0.002018
475 1 0.000512 30000000000 0.000699 0.003438 0.001491
476 1 0.000512 30000000000 0.003906 0.002608 0.004488
477 1 0.000512 30000000000 0.002987 0.006888 0.001192
478 1 0.000511 30000000000 0.005309 0.006410 0.001424
479 1 0.000510 30000000000 0.002604 0.003200 0.002937
480 1 0.000510 30000000000 0.001358 0.001254 0.004724
481 1 0.000509 30000000000 0.002380 0.004231 0.004737
482 1 0.000508 30000000000 0.001415 0.004480 0.005958
483 1 0.000508 30000000000 0.005844 0.005449 0.003279
484 1 0.000508 30000000000 0.001227 0.005363 0.004293
485 1 0.000507 30000000000 0.003563 0.004502 0.003685
486 1 0.000506 30000000000 0.000928 0.004479 0.001051
487 1 0.000506 30000000000 0.003743 0.000142 0.000067
488 1 0.000506 30000000000 0.006491 0.006553 0.006725
489 1 0.000504 30000000000 0.000509 0.002231 0.003394
490 1 0.000504 30000000000 0.005824 0.002201 0.003837
491 1 0.000502 30000000000 0.002406 0.003503 0.000507
492 1 0.000502 30000000000 0.001402 0.002422 0.001963
493 1 0.000502 30000000000 0.000997 0.000685 0.006991
494 1 0.000501 30000000000 0.001030 0.001183 0.006827
495 1 0.000501 30000000000 0.001726 0.003372 0.006333
496 1 0.000501 30000000000 0.000651 0.001714 0.003707
497 1 0.000501 30000000000 0.001820 0.002678 0.001229

Velocities

1 0 0 0 0 0 0
2 0 0 0 0 0 0
3 0 0 0 0 0 0
4 0 0 0 0 0 0
5 0 0 0 0 0 0
6 0 0 0 0 0 0
7 0 0 0 0 0 0
8 0 0 0 0 0 0
9 0 0 0 0 0 0
10 0 0 0 0 0 0
11 0 0 0 0 0 0
12 0 0 0 0 0 0
13 0 0 0 0 0 0
14 0 0 0 0 0 0
15 0 0 0 0 0 0
16 0 0 0 0 0 0
17 0 0 0 0 0 0
18 0 0 0 0 0 0
19 0 0 0 0 0 0
20 0 0 0 0 0 0
21 0 0 0 0 0 0
22 0 0 0 0 0 0
23 0 0 0 0 0 0
24 0 0 0 0 0 0
25 0 0 0 0 0 0
26 0 0 0 0 0 0
27 0 0 0 0 0 0
28 0 0 0 0 0 0
29 0 0 0 0 0 0
30 0 0 0 0 0 0
31 0 0 0 0 0 0
32 0 0 0 0 0 0
33 0 0 0 0 0 0
34 0 0 0 0 0 0
35 0 0 0 0 0 0
36 0 0 0 0 0 0
37 0 0 0 0 0 0
38 0 0 0 0 0 0
39 0 0 0 0 0 0
40 0 0 0 0 0 0
41 0 0 0 0 0 0
42 0 0 0 0 0 0
43 0 0 0 0 0 0
44 0 0 0 0 0 0
45 0 0 0 0 0 0
46 0 0 0 0 0 0
47 0 0 0 0 0 0
48 0 0 0 0 0 0
49 0 0 0 0 0 0
50 0 0 0 0 0 0
51 0 0 0 0 0 0
52 0 0 0 0 0 0
53 0 0 0 0 0 0
54 0 0 0 0 0 0
55 0 0 0 0 0 0
56 0 0 0 0 0 0
57 0 0 0 0 0 0
58 0 0 0 0 0 0
59 0 0 0 0 0 0
60 0 0 0 0 0 0
61 0 0 0 0 0 0
62 0 0 0 0 0 0
63 0 0 0 0 0 0
64 0 0 0 0 0 0
65 0 0 0 0 0 0
66 0 0 0 0 0 0
67 0 0 0 0 0 0
68 0 0 0 0 0 0
69 0 0 0 0 0 0
70 0 0 0 0 0 0
71 0 0 0 0 0 0
72 0 0 0 0 0 0
73 0 0 0 0 0 0
74 0 0 0 0 0 0
75 0 0 0 0 0 0
76 0 0 0 0 0 0
77 0 0 0 0 0 0
78 0 0 0 0 0 0
79 0 0 0 0 0 0
80 0 0 0 0 0 0
81 0 0 0 0 0 0
82 0 0 0 0 0 0
83 0 0 0 0 0 0
84 0 0 0 0 0 0
85 0 0 0 0 0 0
86 0 0 0 0 0 0
87 0 0 0 0 0 0
88 0 0 0 0 0 0
89 0 0 0 0 0 0
90 0 0 0 0 0 0
91 0 0 0 0 0 0
92 0 0 0 0 0 0
93 0 0 0 0 0 0
94 0 0 0 0 0 0
95 0 0 0 0 0 0
96 0 0 0 0 0 0
97 0 0 0 0 0 0
98 0 0 0 0 0 0
99 0 0 0 0 0 0
100 0 0 0 0 0 0
101 0 0 0 0 0 0
102 0 0 0 0 0 0
103 0 0 0 0 0 0
104 0 0 0 0 0 0
105 0 0 0 0 0 0
106 0 0 0 0 0 0
107 0 0 0 0 0 0
108 0 0 0 0 0 0
109 0 0 0 0 0 0
110 0 0 0 0 0 0
111 0 0 0 0 0 0
112 0 0 0 0 0 0
113 0 0 0 0 0 0
114 0 0 0 0 0 0
115 0 0 0 0 0 0
116 0 0 0 0 0 0
117 0 0 0 0 0 0
118 0 0 0 0 0 0
119 0 0 0 0 0 0
120 0 0 0 0 0 0
121 0 0 0 0 0 0
122 0 0 0 0 0 0
123 0 0 0 0 0 0
124 0 0 0 0 0 0
125 0 0 0 0 0 0
126 0 0 0 0 0 0
127 0 0 0 0 0 0
128 0 0 0 0 0 0
129 0 0 0 0 0 0
130 0 0 0 0 0 0
131 0 0 0 0 0 0
132 0 0 0 0 0 0
133 0 0 0 0 0 0
134 0 0 0 0 0 0
135 0 0 0 0 0 0
136 0 0 0 0 0 0
137 0 0 0 0 0 0
138 0 0 0 0 0 0
139 0 0 0 0 0 0
140 0 0 0 0 0 0
141 0 0 0 0 0 0
142 0 0 0 0 0 0
143 0 0 0 0 0 0
144 0 0 0 0 0 0
145 0 0 0 0 0 0
146 0 0 0 0 0 0
147 0 0 0 0 0 0
148 0 0 0 0 0 0
149 0 0 0 0 0 0
150 0 0 0 0 0 0
151 0 0 0 0 0 0
152 0 0 0 0 0 0
153 0 0 0 0 0 0
154 0 0 0 0 0 0
155 0 0 0 0 0 0
156 0 0 0 0 0 0
157 0 0 0 0 0 0
158 0 0 0 0 0 0
159 0 0 0 0 0 0
160 0 0 0 0 0 0
161 0 0 0 0 0 0
162 0 0 0 0 0 0
163 0 0 0 0 0 0
164 0 0 0 0 0 0
165 0 0 0 0 0 0
166 0 0 0 0 0 0
167 0 0 0 0 0 0
168 0 0 0 0 0 0
169 0 0 0 0 0 0
170 0 0 0 0 0 0
171 0 0 0 0 0 0
172 0 0 0 0 0 0
173 0 0 0 0 0 0
174 0 0 0 0 0 0
175 0 0 0 0 0 0
176 0 0 0 0 0 0
177 0 0 0 0 0 0
178 0 0 0 0 0 0
179 0 0 0 0 0 0
180 0 0 0 0 0 0
181 0 0 0 0 0 0
182 0 0 0 0 0 0
183 0 0 0 0 0 0
184 0 0 0 0 0 0
185 0 0 0 0 0 0
186 0 0 0 0 0 0
187 0 0 0 0 0 0
188 0 0 0 0 0 0
189 0 0 0 0 0 0
190 0 0 0 0 0 0
191 0 0 0 0 0 0
192 0 0 0 0 0 0
193 0 0 0 0 0 0
194 0 0 0 0 0 0
195 0 0 0 0 0 0
196 0 0 0 0 0 0
197 0 0 0 0 0 0
198 0 0 0 0 0 0