# Coordinates of a bcc lattice for 497 spheres of diameter 0.001745
1 atom types
497 atoms
#porosity is xxx
0.0 0.006615673 xlo xhi
0.0 0.006615673 ylo yhi
0.0 0.006615673 zlo zhi

Atoms

1 1 0.001745 30000000000 0.001573 0.000175 0.004463
2 1 0.001718 30000000000 0.001418 0.003181 0.002259
3 1 0.001718 30000000000 0.003251 0.000307 0.003651
4 1 0.001664 30000000000 0.000500 0.006265 0.005687
5 1 0.001663 30000000000 0.004152 0.005590 0.004184
6 1 0.001656 30000000000 0.005203 0.004362 0.004598
7 1 0.001613 30000000000 0.001206 0.003356 0.000614
8 1 0.001609 30000000000 0.000511 0.001848 0.004729
9 1 0.001586 30000000000 0.002938 0.002966 0.004261
10 1 0.001573 30000000000 0.006174 0.003505 0.006365
11 1 0.001573 30000000000 0.006488 0.005752 0.000485
12 1 0.001570 30000000000 0.005464 0.000463 0.000085
13 1 0.001549 30000000000 0.006155 0.000897 0.002579
14 1 0.001531 30000000000 0.002835 0.000705 0.000309
15 1 0.001528 30000000000 0.005563 0.006246 0.001914
16 1 0.001524 30000000000 0.006453 0.002680 0.001607
17 1 0.001524 30000000000 0.002210 0.001874 0.006078
18 1 0.001490 30000000000 0.002590 0.001962 0.002666
19 1 0.001472 30000000000 0.003026 0.004495 0.004073
20 1 0.001465 30000000000 0.004611 0.003965 0.001728
21 1 0.001464 30000000000 0.001249 0.004930 0.006012
22 1 0.001454 30000000000 0.003759 0.003562 0.002848
23 1 0.001453 30000000000 0.004834 0.000041 0.003240
24 1 0.001449 30000000000 0.000006 0.004061 0.003430
25 1 0.001446 30000000000 0.003488 0.004328 0.000870
26 1 0.001433 30000000000 0.000748 0.000179 0.002045
27 1 0.001433 30000000000 0.002102 0.004957 0.002229
28 1 0.001429 30000000000 0.005336 0.001774 0.000840
29 1 0.001428 30000000000 0.003967 0.001650 0.004300
30 1 0.001418 30000000000 0.003108 0.004445 0.006107
31 1 0.001410 30000000000 0.000466 0.003822 0.005221
32 1 0.001379 30000000000 0.001809 0.004887 0.004706
33 1 0.001356 30000000000 0.006012 0.000397 0.003943
34 1 0.001356 30000000000 0.005637 0.005611 0.003842
35 1 0.001351 30000000000 0.004839 0.006054 0.005859
36 1 0.001310 30000000000 0.000612 0.005481 0.004426
37 1 0.001303 30000000000 0.006262 0.002154 0.005863
38 1 0.001265 30000000000 0.004330 0.001286 0.003001
39 1 0.001258 30000000000 0.001948 0.000854 0.003170
40 1 0.001256 30000000000 0.004898 0.000736 0.004622
41 1 0.001255 30000000000 0.001206 0.001861 0.002928
42 1 0.001251 30000000000 0.003582 0.006238 0.001514
43 1 0.001247 30000000000 0.006453 0.002794 0.003878
44 1 0.001242 30000000000 0.001539 0.002736 0.004296
45 1 0.001239 30000000000 0.003814 0.005934 0.002706
46 1 0.001232 30000000000 0.005830 0.005205 0.005720
47 1 0.001225 30000000000 0.004488 0.003012 0.003923
48 1 0.001212 30000000000 0.003819 0.002680 0.005325
49 1 0.001212 30000000000 0.001231 0.001835 0.000896
50 1 0.001199 30000000000 0.002354 0.005788 0.000608
51 1 0.001197 30000000000 0.000382 0.004477 0.000302
52 1 0.001191 30000000000 0.005274 0.002945 0.002272
53 1 0.001184 30000000000 0.002638 0.005754 0.004254
54 1 0.001176 30000000000 0.000918 0.004514 0.001893
55 1 0.001171 30000000000 0.003454 0.002316 0.006407
56 1 0.001170 30000000000 0.002500 0.006281 0.006054
57 1 0.001170 30000000000 0.000162 0.001028 0.005811
58 1 0.001148 30000000000 0.001395 0.005905 0.002756
59 1 0.001141 30000000000 0.004929 0.004897 0.006428
60 1 0.001141 30000000000 0.006556 0.003914 0.002098
61 1 0.001138 30000000000 0.001235 0.004376 0.003032
62 1 0.001135 30000000000 0.003917 0.001017 0.001880
63 1 0.001130 30000000000 0.003882 0.004781 0.002434
64 1 0.001118 30000000000 0.000662 0.000219 0.000336
65 1 0.001113 30000000000 0.005496 0.004126 0.002659
66 1 0.001111 30000000000 0.002682 0.001084 0.004693
67 1 0.001111 30000000000 0.002015 0.000095 0.002253
68 1 0.001110 30000000000 0.004468 0.003645 0.005526
69 1 0.001108 30000000000 0.006215 0.005448 0.002739
70 1 0.001107 30000000000 0.005808 0.001502 0.004692
71 1 0.001104 30000000000 0.006286 0.001625 0.003687
72 1 0.001089 30000000000 0.003370 0.000377 0.005775
73 1 0.001089 30000000000 0.003959 0.001303 0.006217
74 1 0.001086 30000000000 0.001879 0.001147 0.001941
75 1 0.001086 30000000000 0.002434 0.003974 0.001501
76 1 0.001086 30000000000 0.000963 0.005380 0.001156
77 1 0.001084 30000000000 0.004791 0.005241 0.001570
78 1 0.001081 30000000000 0.005183 0.003750 0.000605
79 1 0.001080 30000000000 0.000528 0.005560 0.002140
80 1 0.001078 30000000000 0.002061 0.003715 0.003581
81 1 0.001074 30000000000 0.002464 0.003935 0.005146
82 1 0.001066 30000000000 0.003696 0.002397 0.003329
83 1 0.001065 30000000000 0.002568 0.005963 0.002833
84 1 0.001062 30000000000 0.001972 0.003908 0.006207
85 1 0.001062 30000000000 0.003290 0.006181 0.005069
86 1 0.001059 30000000000 0.003308 0.001651 0.005422
87 1 0.001057 30000000000 0.002639 0.003145 0.005840
88 1 0.001057 30000000000 0.004681 0.002190 0.006352
89 1 0.001056 30000000000 0.001856 0.004803 0.001013
90 1 0.001043 30000000000 0.004926 0.000716 0.002183
91 1 0.001040 30000000000 0.003945 0.003770 0.004590
92 1 0.001020 30000000000 0.003323 0.005927 0.000072
93 1 0.001019 30000000000 0.003708 0.001590 0.000594
94 1 0.001016 30000000000 0.000178 0.002993 0.002803
95 1 0.001011 30000000000 0.001462 0.001017 0.000173
96 1 0.001007 30000000000 0.003334 0.003419 0.001689
97 1 0.001005 30000000000 0.002079 0.002193 0.001548
98 1 0.001001 30000000000 0.004523 0.002434 0.001655
99 1 0.000999 30000000000 0.000141 0.000709 0.001133
100 1 0.000995 30000000000 0.001932 0.000601 0.005989
101 1 0.000994 30000000000 0.001734 0.000077 0.000416
102 1 0.000993 30000000000 0.001353 0.003831 0.004411
103 1 0.000975 30000000000 0.005041 0.002224 0.004509
104 1 0.000969 30000000000 0.004486 0.001815 0.005430
105 1 0.000969 30000000000 0.002103 0.002422 0.000582
106 1 0.000962 30000000000 0.000070 0.005984 0.003513
107 1 0.000960 30000000000 0.004634 0.006168 0.000398
108 1 0.000956 30000000000 0.005649 0.000771 0.001427
109 1 0.000950 30000000000 0.000396 0.000834 0.003561
110 1 0.000939 30000000000 0.000041 0.004700 0.001294
111 1 0.000937 30000000000 0.006584 0.003705 0.000920
112 1 0.000935 30000000000 0.004328 0.002372 0.000681
113 1 0.000934 30000000000 0.000374 0.001751 0.002221
114 1 0.000929 30000000000 0.001774 0.001869 0.004912
115 1 0.000924 30000000000 0.004932 0.004814 0.003389
116 1 0.000922 30000000000 0.005343 0.001194 0.003474
117 1 0.000920 30000000000 0.001663 0.005621 0.003829
118 1 0.000920 30000000000 0.005673 0.000738 0.005412
119 1 0.000912 30000000000 0.001060 0.000198 0.003217
120 1 0.000909 30000000000 0.002406 0.003980 0.000495
121 1 0.000905 30000000000 0.005680 0.002808 0.005017
122 1 0.000900 30000000000 0.001199 0.001277 0.003835
123 1 0.000900 30000000000 0.002660 0.003701 0.002440
124 1 0.000897 30000000000 0.006262 0.001473 0.001486
125 1 0.000896 30000000000 0.002489 0.006104 0.001607
126 1 0.000895 30000000000 0.003830 0.006614 0.000527
127 1 0.000894 30000000000 0.005834 0.004696 0.001891
128 1 0.000885 30000000000 0.001151 0.001310 0.005915
129 1 0.000884 30000000000 0.005735 0.002017 0.002340
130 1 0.000878 30000000000 0.004574 0.004004 0.003557
131 1 0.000873 30000000000 0.002032 0.002763 0.003338
132 1 0.000871 30000000000 0.004897 0.001040 0.005779
133 1 0.000867 30000000000 0.003903 0.004427 0.005284
134 1 0.000866 30000000000 0.001611 0.005921 0.006512
135 1 0.000866 30000000000 0.005272 0.004144 0.005841
136 1 0.000863 30000000000 0.005119 0.002885 0.001058
137 1 0.000862 30000000000 0.006168 0.003551 0.004590
138 1 0.000858 30000000000 0.000548 0.002779 0.006336
139 1 0.000853 30000000000 0.004137 0.000843 0.005370
140 1 0.000850 30000000000 0.005183 0.002876 0.000193
141 1 0.000850 30000000000 0.003218 0.002279 0.001052
142 1 0.000849 30000000000 0.002257 0.003045 0.001228
143 1 0.000846 30000000000 0.005329 0.005849 0.004886
144 1 0.000844 30000000000 0.004403 0.004151 0.000203
145 1 0.000842 30000000000 0.003248 0.005214 0.005040
146 1 0.000840 30000000000 0.003230 0.001729 0.001715
147 1 0.000840 30000000000 0.003025 0.000078 0.002375
148 1 0.000838 30000000000 0.004167 0.005521 0.006565
149 1 0.000838 30000000000 0.003608 0.002503 0.001776
150 1 0.000838 30000000000 0.000944 0.005259 0.003423
151 1 0.000836 30000000000 0.006213 0.000175 0.004998
152 1 0.000835 30000000000 0.005339 0.002710 0.005910
153 1 0.000832 30000000000 0.001164 0.003293 0.005933
154 1 0.000829 30000000000 0.002488 0.005560 0.005266
155 1 0.000828 30000000000 0.000867 0.002155 0.005860
156 1 0.000825 30000000000 0.006306 0.005680 0.004926
157 1 0.000825 30000000000 0.004528 0.004783 0.000750
158 1 0.000823 30000000000 0.005012 0.003400 0.003134
159 1 0.000820 30000000000 0.002628 0.002903 0.001985
160 1 0.000818 30000000000 0.006284 0.001562 0.000199
161 1 0.000818 30000000000 0.005692 0.005267 0.001256
162 1 0.000817 30000000000 0.002581 0.004824 0.000404
163 1 0.000816 30000000000 0.003217 0.005541 0.005804
164 1 0.000813 30000000000 0.004745 0.005570 0.002459
165 1 0.000811 30000000000 0.005034 0.002032 0.002821
166 1 0.000808 30000000000 0.006081 0.004679 0.006558
167 1 0.000806 30000000000 0.000144 0.002728 0.000466
168 1 0.000802 30000000000 0.005288 0.004582 0.001048
169 1 0.000802 30000000000 0.004252 0.003516 0.000713
170 1 0.000800 30000000000 0.001242 0.002287 0.006583
171 1 0.000798 30000000000 0.004197 0.000390 0.001199
172 1 0.000798 30000000000 0.005855 0.004048 0.001253
173 1 0.000795 30000000000 0.000942 0.006062 0.003609
174 1 0.000794 30000000000 0.006214 0.002318 0.002991
175 1 0.000792 30000000000 0.006094 0.004266 0.005434
176 1 0.000791 30000000000 0.005550 0.002288 0.003640
177 1 0.000791 30000000000 0.003388 0.001519 0.003356
178 1 0.000787 30000000000 0.001881 0.000871 0.000961
179 1 0.000783 30000000000 0.000213 0.001915 0.000826
180 1 0.000783 30000000000 0.005074 0.006384 0.004328
181 1 0.000781 30000000000 0.005910 0.006128 0.006120
182 1 0.000780 30000000000 0.006332 0.005380 0.001720
183 1 0.000778 30000000000 0.000214 0.005090 0.005484
184 1 0.000777 30000000000 0.000233 0.000077 0.003029
185 1 0.000775 30000000000 0.000304 0.002057 0.000049
186 1 0.000772 30000000000 0.006575 0.002903 0.004882
187 1 0.000772 30000000000 0.000325 0.000601 0.004817
188 1 0.000768 30000000000 0.003756 0.002901 0.001079
189 1 0.000767 30000000000 0.002643 0.000852 0.002379
190 1 0.000766 30000000000 0.003442 0.005212 0.001558
191 1 0.000766 30000000000 0.004337 0.000264 0.006338
192 1 0.000765 30000000000 0.006088 0.000103 0.001009
193 1 0.000762 30000000000 0.004472 0.006529 0.002202
194 1 0.000762 30000000000 0.002610 0.002007 0.004856
195 1 0.000761 30000000000 0.003508 0.003424 0.005917
196 1 0.000761 30000000000 0.004839 0.002644 0.005271
197 1 0.000760 30000000000 0.001320 0.002547 0.005265
198 1 0.000759 30000000000 0.003101 0.003444 0.006563
199 1 0.000758 30000000000 0.001816 0.005642 0.001414
200 1 0.000751 30000000000 0.004867 0.001863 0.003700
201 1 0.000742 30000000000 0.002687 0.005054 0.003145
202 1 0.000740 30000000000 0.005604 0.004996 0.000472
203 1 0.000738 30000000000 0.003909 0.000593 0.004649
204 1 0.000736 30000000000 0.003095 0.005271 0.002548
205 1 0.000735 30000000000 0.005394 0.001447 0.001871
206 1 0.000733 30000000000 0.003953 0.001826 0.001409
207 1 0.000731 30000000000 0.001121 0.006045 0.000535
208 1 0.000730 30000000000 0.000472 0.001489 0.001421
209 1 0.000729 30000000000 0.003330 0.005405 0.000841
210 1 0.000729 30000000000 0.001133 0.000961 0.001377
211 1 0.000728 30000000000 0.004026 0.005314 0.001089
212 1 0.000728 30000000000 0.002659 0.000930 0.005620
213 1 0.000728 30000000000 0.002124 0.001545 0.000568
214 1 0.000727 30000000000 0.006456 0.006139 0.004312
215 1 0.000725 30000000000 0.000392 0.002807 0.005560
216 1 0.000724 30000000000 0.006554 0.000845 0.000299
217 1 0.000721 30000000000 0.002737 0.005029 0.001270
218 1 0.000719 30000000000 0.001375 0.001180 0.005149
219 1 0.000719 30000000000 0.005342 0.005673 0.000139
220 1 0.000718 30000000000 0.003082 0.004618 0.001843
221 1 0.000715 30000000000 0.002071 0.003134 0.005022
222 1 0.000715 30000000000 0.000044 0.004540 0.005989
223 1 0.000713 30000000000 0.005467 0.003881 0.003539
224 1 0.000713 30000000000 0.001971 0.001294 0.004075
225 1 0.000712 30000000000 0.002871 0.003436 0.000915
226 1 0.000710 30000000000 0.004150 0.003052 0.000109
227 1 0.000709 30000000000 0.001641 0.004392 0.000261
228 1 0.000706 30000000000 0.004976 0.003217 0.004826
229 1 0.000704 30000000000 0.002889 0.002434 0.005383
230 1 0.000704 30000000000 0.005832 0.003330 0.003257
231 1 0.000703 30000000000 0.003380 0.000557 0.001278
232 1 0.000701 30000000000 0.000609 0.001095 0.000031
233 1 0.000699 30000000000 0.003187 0.005652 0.003466
234 1 0.000699 30000000000 0.005818 0.004781 0.003251
235 1 0.000697 30000000000 0.002647 0.002741 0.000031
236 1 0.000696 30000000000 0.005905 0.006144 0.005376
237 1 0.000693 30000000000 0.002789 0.000227 0.001595
238 1 0.000692 30000000000 0.002950 0.002905 0.003111
239 1 0.000691 30000000000 0.004803 0.005332 0.005130
240 1 0.000687 30000000000 0.002691 0.005371 0.006409
241 1 0.000686 30000000000 0.006489 0.005024 0.003895
242 1 0.000684 30000000000 0.005473 0.006608 0.004924
243 1 0.000682 30000000000 0.005428 0.003103 0.003778
244 1 0.000681 30000000000 0.000559 0.003179 0.004389
245 1 0.000679 30000000000 0.002103 0.004572 0.003222
246 1 0.000678 30000000000 0.000373 0.006543 0.004553
247 1 0.000678 30000000000 0.000198 0.001858 0.003000
248 1 0.000677 30000000000 0.000032 0.004818 0.002160
249 1 0.000677 30000000000 0.003091 0.002865 0.000562
250 1 0.000676 30000000000 0.001032 0.003714 0.003642
251 1 0.000676 30000000000 0.005914 0.003268 0.000818
252 1 0.000674 30000000000 0.001207 0.000222 0.001049
253 1 0.000673 30000000000 0.004847 0.005591 0.003201
254 1 0.000673 30000000000 0.004399 0.005042 0.005693
255 1 0.000672 30000000000 0.001709 0.005148 0.003187
256 1 0.000671 30000000000 0.004761 0.001673 0.002223
257 1 0.000669 30000000000 0.003561 0.005123 0.003224
258 1 0.000669 30000000000 0.005127 0.005817 0.000966
259 1 0.000667 30000000000 0.004811 0.001356 0.006537
260 1 0.000662 30000000000 0.002199 0.006232 0.003573
261 1 0.000661 30000000000 0.002330 0.005145 0.005884
262 1 0.000661 30000000000 0.004683 0.003482 0.006551
263 1 0.000661 30000000000 0.005447 0.002105 0.005271
264 1 0.000660 30000000000 0.000825 0.000994 0.000755
265 1 0.000659 30000000000 0.000944 0.001217 0.002012
266 1 0.000658 30000000000 0.001387 0.003177 0.003452
267 1 0.000658 30000000000 0.004046 0.003683 0.006306
268 1 0.000657 30000000000 0.006002 0.004259 0.000554
269 1 0.000656 30000000000 0.005713 0.001302 0.006005
270 1 0.000655 30000000000 0.000635 0.001015 0.002704
271 1 0.000655 30000000000 0.005440 0.005228 0.002316
272 1 0.000653 30000000000 0.005547 0.002278 0.006534
273 1 0.000652 30000000000 0.004376 0.001078 0.000367
274 1 0.000651 30000000000 0.004437 0.005985 0.001181
275 1 0.000651 30000000000 0.000207 0.005135 0.003312
276 1 0.000651 30000000000 0.006056 0.003376 0.002612
277 1 0.000651 30000000000 0.001722 0.003508 0.005489
278 1 0.000651 30000000000 0.004133 0.004618 0.003400
279 1 0.000651 30000000000 0.004169 0.004431 0.004053
280 1 0.000649 30000000000 0.001206 0.004920 0.000453
281 1 0.000648 30000000000 0.003964 0.005728 0.005447
282 1 0.000646 30000000000 0.000164 0.004564 0.004361
283 1 0.000645 30000000000 0.003972 0.004733 0.000003
284 1 0.000645 30000000000 0.003939 0.005835 0.000641
285 1 0.000643 30000000000 0.004332 0.001297 0.001102
286 1 0.000641 30000000000 0.002187 0.002484 0.005179
287 1 0.000639 30000000000 0.002930 0.002013 0.003682
288 1 0.000639 30000000000 0.004306 0.005184 0.003101
289 1 0.000638 30000000000 0.004371 0.002122 0.002544
290 1 0.000637 30000000000 0.004483 0.000161 0.005257
291 1 0.000636 30000000000 0.003285 0.004538 0.003046
292 1 0.000636 30000000000 0.000832 0.004771 0.005059
293 1 0.000632 30000000000 0.003943 0.001884 0.002112
294 1 0.000631 30000000000 0.003992 0.005483 0.001899
295 1 0.000630 30000000000 0.004191 0.004371 0.006106
296 1 0.000629 30000000000 0.002898 0.005517 0.001874
297 1 0.000629 30000000000 0.004333 0.000750 0.003821
298 1 0.000628 30000000000 0.002031 0.001100 0.005344
299 1 0.000627 30000000000 0.000902 0.000653 0.006205
300 1 0.000626 30000000000 0.000530 0.001621 0.003583
301 1 0.000625 30000000000 0.003516 0.000595 0.002547
302 1 0.000624 30000000000 0.000485 0.004790 0.002644
303 1 0.000623 30000000000 0.005482 0.003448 0.001411
304 1 0.000623 30000000000 0.001499 0.004033 0.005183
305 1 0.000623 30000000000 0.001604 0.006462 0.005978
306 1 0.000623 30000000000 0.002553 0.001516 0.001526
307 1 0.000622 30000000000 0.004476 0.002700 0.002806
308 1 0.000621 30000000000 0.005010 0.006606 0.000966
309 1 0.000620 30000000000 0.002298 0.002170 0.003761
310 1 0.000618 30000000000 0.004541 0.002308 0.003293
311 1 0.000617 30000000000 0.000615 0.003223 0.003497
312 1 0.000615 30000000000 0.002967 0.000853 0.001713
313 1 0.000615 30000000000 0.000107 0.006103 0.001612
314 1 0.000615 30000000000 0.001917 0.005077 0.000206
315 1 0.000615 30000000000 0.005097 0.003397 0.006067
316 1 0.000614 30000000000 0.001748 0.002783 0.006416
317 1 0.000613 30000000000 0.003838 0.000185 0.002213
318 1 0.000613 30000000000 0.006466 0.004735 0.005007
319 1 0.000611 30000000000 0.003254 0.000427 0.004833
320 1 0.000609 30000000000 0.003194 0.002811 0.002421
321 1 0.000609 30000000000 0.002441 0.006387 0.005163
322 1 0.000606 30000000000 0.001097 0.003926 0.006276
323 1 0.000606 30000000000 0.002636 0.004362 0.002878
324 1 0.000606 30000000000 0.006229 0.004593 0.002642
325 1 0.000605 30000000000 0.002684 0.001322 0.003535
326 1 0.000604 30000000000 0.005703 0.003738 0.001915
327 1 0.000604 30000000000 0.002216 0.003261 0.000074
328 1 0.000603 30000000000 0.005666 0.001747 0.003041
329 1 0.000602 30000000000 0.006359 0.000916 0.005012
330 1 0.000601 30000000000 0.005642 0.000026 0.005708
331 1 0.000601 30000000000 0.001090 0.005093 0.002560
332 1 0.000601 30000000000 0.004624 0.002915 0.005945
333 1 0.000601 30000000000 0.004740 0.004866 0.002603
334 1 0.000601 30000000000 0.004379 0.003041 0.002201
335 1 0.000600 30000000000 0.000917 0.002567 0.001345
336 1 0.000600 30000000000 0.002632 0.000366 0.005216
337 1 0.000600 30000000000 0.003352 0.003449 0.005187
338 1 0.000600 30000000000 0.001262 0.003220 0.005058
339 1 0.000600 30000000000 0.001865 0.006542 0.003135
340 1 0.000600 30000000000 0.003719 0.003541 0.000248
341 1 0.000599 30000000000 0.005365 0.001497 0.005436
342 1 0.000599 30000000000 0.001282 0.000933 0.002524
343 1 0.000598 30000000000 0.004466 0.000462 0.000527
344 1 0.000596 30000000000 0.006156 0.003347 0.005290
345 1 0.000596 30000000000 0.006186 0.004985 0.004528
346 1 0.000595 30000000000 0.005812 0.002267 0.004281
347 1 0.000595 30000000000 0.003215 0.001123 0.002801
348 1 0.000594 30000000000 0.006603 0.000395 0.006430
349 1 0.000593 30000000000 0.003862 0.003946 0.003795
350 1 0.000591 30000000000 0.004547 0.001572 0.001612
351 1 0.000591 30000000000 0.004057 0.006262 0.006459
352 1 0.000590 30000000000 0.006086 0.001077 0.000790
353 1 0.000590 30000000000 0.006214 0.002279 0.000650
354 1 0.000589 30000000000 0.003915 0.000634 0.000136
355 1 0.000588 30000000000 0.001518 0.004869 0.003747
356 1 0.000588 30000000000 0.003984 0.002598 0.002382
357 1 0.000586 30000000000 0.003121 0.004296 0.002460
358 1 0.000586 30000000000 0.000907 0.004503 0.004494
359 1 0.000584 30000000000 0.003861 0.005225 0.005960
360 1 0.000584 30000000000 0.002980 0.001870 0.004304
361 1 0.000582 30000000000 0.002783 0.001765 0.000371
362 1 0.000582 30000000000 0.000200 0.006109 0.002683
363 1 0.000581 30000000000 0.002508 0.000830 0.001323
364 1 0.000581 30000000000 0.001193 0.002018 0.003843
365 1 0.000579 30000000000 0.003596 0.002168 0.002541
366 1 0.000577 30000000000 0.003280 0.004034 0.004978
367 1 0.000577 30000000000 0.004938 0.000541 0.001192
368 1 0.000576 30000000000 0.000813 0.002548 0.003779
369 1 0.000576 30000000000 0.001817 0.005763 0.005818
370 1 0.000575 30000000000 0.003582 0.001590 0.002505
371 1 0.000575 30000000000 0.003571 0.004173 0.001889
372 1 0.000574 30000000000 0.000456 0.000030 0.003885
373 1 0.000573 30000000000 0.001986 0.000329 0.001427
374 1 0.000572 30000000000 0.005578 0.002583 0.003023
375 1 0.000571 30000000000 0.002392 0.001767 0.004201
376 1 0.000571 30000000000 0.005357 0.002262 0.001715
377 1 0.000569 30000000000 0.001729 0.006441 0.001507
378 1 0.000569 30000000000 0.005871 0.003523 0.003934
379 1 0.000565 30000000000 0.002810 0.003484 0.003325
380 1 0.000564 30000000000 0.003007 0.004555 0.005109
381 1 0.000563 30000000000 0.005093 0.000246 0.005377
382 1 0.000562 30000000000 0.003849 0.000769 0.000752
383 1 0.000562 30000000000 0.000328 0.001301 0.000561
384 1 0.000561 30000000000 0.002051 0.001484 0.001206
385 1 0.000561 30000000000 0.002015 0.004499 0.003838
386 1 0.000560 30000000000 0.000845 0.004250 0.003965
387 1 0.000560 30000000000 0.004707 0.000159 0.001591
388 1 0.000559 30000000000 0.001494 0.005457 0.000488
389 1 0.000557 30000000000 0.001358 0.001798 0.001924
390 1 0.000556 30000000000 0.000144 0.000938 0.004267
391 1 0.000556 30000000000 0.002219 0.004721 0.006440
392 1 0.000556 30000000000 0.005625 0.003554 0.005443
393 1 0.000556 30000000000 0.003066 0.001387 0.003978
394 1 0.000555 30000000000 0.000912 0.000736 0.005250
395 1 0.000555 30000000000 0.006142 0.002297 0.004771
396 1 0.000551 30000000000 0.002295 0.005153 0.003685
397 1 0.000551 30000000000 0.003895 0.000140 0.005148
398 1 0.000551 30000000000 0.006328 0.004278 0.004638
399 1 0.000550 30000000000 0.006313 0.006341 0.002846
400 1 0.000549 30000000000 0.000615 0.003600 0.006234
401 1 0.000547 30000000000 0.004381 0.003097 0.001275
402 1 0.000546 30000000000 0.002072 0.003987 0.002780
403 1 0.000546 30000000000 0.006445 0.000212 0.000444
404 1 0.000546 30000000000 0.005809 0.006320 0.003150
405 1 0.000545 30000000000 0.000896 0.001675 0.000040
406 1 0.000545 30000000000 0.001866 0.005866 0.005114
407 1 0.000544 30000000000 0.000729 0.002391 0.000430
408 1 0.000543 30000000000 0.001251 0.006224 0.001226
409 1 0.000543 30000000000 0.004307 0.006579 0.004681
410 1 0.000542 30000000000 0.000962 0.002801 0.003234
411 1 0.000542 30000000000 0.001864 0.006288 0.005466
412 1 0.000541 30000000000 0.003278 0.001270 0.001169
413 1 0.000541 30000000000 0.000882 0.005506 0.000256
414 1 0.000539 30000000000 0.002832 0.002349 0.001627
415 1 0.000539 30000000000 0.003986 0.005107 0.000486
416 1 0.000539 30000000000 0.000601 0.003988 0.002634
417 1 0.000539 30000000000 0.002618 0.001762 0.000918
418 1 0.000538 30000000000 0.005014 0.005235 0.000581
419 1 0.000538 30000000000 0.004837 0.001122 0.001401
420 1 0.000537 30000000000 0.001297 0.000434 0.005568
421 1 0.000537 30000000000 0.003910 0.004564 0.004573
422 1 0.000537 30000000000 0.001739 0.002123 0.003609
423 1 0.000536 30000000000 0.005793 0.002677 0.000475
424 1 0.000536 30000000000 0.001309 0.005984 0.001726
425 1 0.000535 30000000000 0.002054 0.003508 0.004502
426 1 0.000534 30000000000 0.005332 0.001945 0.005883
427 1 0.000534 30000000000 0.000587 0.005720 0.002960
428 1 0.000534 30000000000 0.004486 0.004435 0.002927
429 1 0.000534 30000000000 0.004762 0.000951 0.000839
430 1 0.000533 30000000000 0.005522 0.006153 0.000614
431 1 0.000533 30000000000 0.006463 0.000095 0.001626
432 1 0.000532 30000000000 0.004970 0.002686 0.003170
433 1 0.000532 30000000000 0.004716 0.006215 0.004889
434 1 0.000531 30000000000 0.004319 0.000185 0.004130
435 1 0.000531 30000000000 0.005987 0.004721 0.000937
436 1 0.000531 30000000000 0.005655 0.001542 0.006547
437 1 0.000530 30000000000 0.001927 0.005927 0.002018
438 1 0.000529 30000000000 0.002336 0.000072 0.001044
439 1 0.000529 30000000000 0.006048 0.001359 0.005461
440 1 0.000529 30000000000 0.003080 0.006030 0.002220
441 1 0.000528 30000000000 0.005747 0.005319 0.004755
442 1 0.000528 30000000000 0.005532 0.003252 0.004456
443 1 0.000527 30000000000 0.000697 0.000895 0.004281
444 1 0.000526 30000000000 0.004028 0.003079 0.001708
445 1 0.000526 30000000000 0.003876 0.005153 0.005354
446 1 0.000526 30000000000 0.001839 0.002780 0.005596
447 1 0.000526 30000000000 0.005017 0.001560 0.004958
448 1 0.000525 30000000000 0.006248 0.000313 0.005989
449 1 0.000525 30000000000 0.004531 0.005524 0.000766
450 1 0.000523 30000000000 0.001446 0.002602 0.005926
451 1 0.000523 30000000000 0.004091 0.003042 0.006078
452 1 0.000523 30000000000 0.002516 0.004824 0.005396
453 1 0.000523 30000000000 0.003868 0.006320 0.005893
454 1 0.000522 30000000000 0.004444 0.001706 0.000376
455 1 0.000521 30000000000 0.005028 0.004899 0.005542
456 1 0.000520 30000000000 0.000294 0.001060 0.001862
457 1 0.000520 30000000000 0.000529 0.006092 0.001230
458 1 0.000519 30000000000 0.004645 0.000383 0.005771
459 1 0.000517 30000000000 0.003571 0.005198 0.006518
460 1 0.000516 30000000000 0.003469 0.000944 0.004991
461 1 0.000516 30000000000 0.004338 0.004896 0.005010
462 1 0.000515 30000000000 0.004691 0.004499 0.005584
463 1 0.000515 30000000000 0.004390 0.002557 0.004658
464 1 0.000515 30000000000 0.005025 0.004076 0.006504
465 1 0.000514 30000000000 0.000580 0.003919 0.001265
466 1 0.000514 30000000000 0.003451 0.003339 0.000720
467 1 0.000514 30000000000 0.001357 0.005752 0.005006
468 1 0.000514 30000000000 0.004684 0.003928 0.002813
469 1 0.000513 30000000000 0.004367 0.003134 0.004805
470 1 0.000513 30000000000 0.006244 0.002468 0.000125
471 1 0.000513 30000000000 0.003679 0.002807 0.000442
472 1 0.000513 30000000000 0.000775 0.002308 0.001836
473 1 0.000513 30000000000 0.001995 0.001645 0.003565
474 1 0.000513 30000000000 0.001296 0.005423 0.001903
475 1 0.000512 30000000000 0.000531 0.003461 0.001576
476 1 0.000512 30000000000 0.003910 0.002604 0.004465
477 1 0.000512 30000000000 0.002813 0.006425 0.001065
478 1 0.000511 30000000000 0.004495 0.005955 0.001801
479 1 0.000510 30000000000 0.002482 0.003070 0.002756
480 1 0.000510 30000000000 0.001509 0.001329 0.004487
481 1 0.000509 30000000000 0.002138 0.004044 0.004340
482 1 0.000508 30000000000 0.001336 0.003977 0.005740
483 1 0.000508 30000000000 0.005308 0.005757 0.002771
484 1 0.000508 30000000000 0.001060 0.004739 0.004019
485 1 0.000507 30000000000 0.002968 0.004031 0.003199
486 1 0.000506 30000000000 0.000894 0.004322 0.000976
487 1 0.000506 30000000000 0.003527 0.000019 0.006479
488 1 0.000506 30000000000 0.006345 0.006523 0.006411
489 1 0.000504 30000000000 0.000577 0.002438 0.003180
490 1 0.000504 30000000000 0.005450 0.001744 0.003982
491 1 0.000502 30000000000 0.002514 0.003069 0.000574
492 1 0.000502 30000000000 0.001272 0.002252 0.001655
493 1 0.000502 30000000000 0.001356 0.000277 0.006417
494 1 0.000501 30000000000 0.000534 0.001670 0.006205
495 1 0.000501 30000000000 0.001849 0.003132 0.005978
496 1 0.000501 30000000000 0.000438 0.002166 0.003713
497 1 0.000501 30000000000 0.001481 0.002567 0.001283

Velocities

1 0 0 0 0 0 0
2 0 0 0 0 0 0
3 0 0 0 0 0 0
4 0 0 0 0 0 0
5 0 0 0 0 0 0
6 0 0 0 0 0 0
7 0 0 0 0 0 0
8 0 0 0 0 0 0
9 0 0 0 0 0 0
10 0 0 0 0 0 0
11 0 0 0 0 0 0
12 0 0 0 0 0 0
13 0 0 0 0 0 0
14 0 0 0 0 0 0
15 0 0 0 0 0 0
16 0 0 0 0 0 0
17 0 0 0 0 0 0
18 0 0 0 0 0 0
19 0 0 0 0 0 0
20 0 0 0 0 0 0
21 0 0 0 0 0 0
22 0 0 0 0 0 0
23 0 0 0 0 0 0
24 0 0 0 0 0 0
25 0 0 0 0 0 0
26 0 0 0 0 0 0
27 0 0 0 0 0 0
28 0 0 0 0 0 0
29 0 0 0 0 0 0
30 0 0 0 0 0 0
31 0 0 0 0 0 0
32 0 0 0 0 0 0
33 0 0 0 0 0 0
34 0 0 0 0 0 0
35 0 0 0 0 0 0
36 0 0 0 0 0 0
37 0 0 0 0 0 0
38 0 0 0 0 0 0
39 0 0 0 0 0 0
40 0 0 0 0 0 0
41 0 0 0 0 0 0
42 0 0 0 0 0 0
43 0 0 0 0 0 0
44 0 0 0 0 0 0
45 0 0 0 0 0 0
46 0 0 0 0 0 0
47 0 0 0 0 0 0
48 0 0 0 0 0 0
49 0 0 0 0 0 0
50 0 0 0 0 0 0
51 0 0 0 0 0 0
52 0 0 0 0 0 0
53 0 0 0 0 0 0
54 0 0 0 0 0 0
55 0 0 0 0 0 0
56 0 0 0 0 0 0
57 0 0 0 0 0 0
58 0 0 0 0 0 0
59 0 0 0 0 0 0
60 0 0 0 0 0 0
61 0 0 0 0 0 0
62 0 0 0 0 0 0
63 0 0 0 0 0 0
64 0 0 0 0 0 0
65 0 0 0 0 0 0
66 0 0 0 0 0 0
67 0 0 0 0 0 0
68 0 0 0 0 0 0
69 0 0 0 0 0 0
70 0 0 0 0 0 0
71 0 0 0 0 0 0
72 0 0 0 0 0 0
73 0 0 0 0 0 0
74 0 0 0 0 0 0
75 0 0 0 0 0 0
76 0 0 0 0 0 0
77 0 0 0 0 0 0
78 0 0 0 0 0 0
79 0 0 0 0 0 0
80 0 0 0 0 0 0
81 0 0 0 0 0 0
82 0 0 0 0 0 0
83 0 0 0 0 0 0
84 0 0 0 0 0 0
85 0 0 0 0 0 0
86 0 0 0 0 0 0
87 0 0 0 0 0 0
88 0 0 0 0 0 0
89 0 0 0 0 0 0
90 0 0 0 0 0 0
91 0 0 0 0 0 0
92 0 0 0 0 0 0
93 0 0 0 0 0 0
94 0 0 0 0 0 0
95 0 0 0 0 0 0
96 0 0 0 0 0 0
97 0 0 0 0 0 0
98 0 0 0 0 0 0
99 0 0 0 0 0 0
100 0 0 0 0 0 0
101 0 0 0 0 0 0
102 0 0 0 0 0 0
103 0 0 0 0 0 0
104 0 0 0 0 0 0
105 0 0 0 0 0 0
106 0 0 0 0 0 0
107 0 0 0 0 0 0
108 0 0 0 0 0 0
109 0 0 0 0 0 0
110 0 0 0 0 0 0
111 0 0 0 0 0 0
112 0 0 0 0 0 0
113 0 0 0 0 0 0
114 0 0 0 0 0 0
115 0 0 0 0 0 0
116 0 0 0 0 0 0
117 0 0 0 0 0 0
118 0 0 0 0 0 0
119 0 0 0 0 0 0
120 0 0 0 0 0 0
121 0 0 0 0 0 0
122 0 0 0 0 0 0
123 0 0 0 0 0 0
124 0 0 0 0 0 0
125 0 0 0 0 0 0
126 0 0 0 0 0 0
127 0 0 0 0 0 0
128 0 0 0 0 0 0
129 0 0 0 0 0 0
130 0 0 0 0 0 0
131 0 0 0 0 0 0
132 0 0 0 0 0 0
133 0 0 0 0 0 0
134 0 0 0 0 0 0
135 0 0 0 0 0 0
136 0 0 0 0 0 0
137 0 0 0 0 0 0
138 0 0 0 0 0 0
139 0 0 0 0 0 0
140 0 0 0 0 0 0
141 0 0 0 0 0 0
142 0 0 0 0 0 0
143 0 0 0 0 0 0
144 0 0 0 0 0 0
145 0 0 0 0 0 0
146 0 0 0 0 0 0
147 0 0 0 0 0 0
148 0 0 0 0 0 0
149 0 0 0 0 0 0
150 0 0 0 0 0 0
151 0 0 0 0 0 0
152 0 0 0 0 0 0
153 0 0 0 0 0 0
154 0 0 0 0 0 0
155 0 0 0 0 0 0
156 0 0 0 0 0 0
157 0 0 0 0 0 0
158 0 0 0 0 0 0
159 0 0 0 0 0 0
160 0 0 0 0 0 0
161 0 0 0 0 0 0
162 0 0 0 0 0 0
163 0 0 0 0 0 0
164 0 0 0 0 0 0
165 0 0 0 0 0 0
166 0 0 0 0 0 0
167 0 0 0 0 0 0
168 0 0 0 0 0 0
169 0 0 0 0 0 0
170 0 0 0 0 0 0
171 0 0 0 0 0 0
172 0 0 0 0 0 0
173 0 0 0 0 0 0
174 0 0 0 0 0 0
175 0 0 0 0 0 0
176 0 0 0 0 0 0
177 0 0 0 0 0 0
178 0 0 0 0 0 0
179 0 0 0 0 0 0
180 0 0 0 0 0 0
181 0 0 0 0 0 0
182 0 0 0 0 0 0
183 0 0 0 0 0 0
184 0 0 0 0 0 0
185 0 0 0 0 0 0
186 0 0 0 0 0 0
187 0 0 0 0 0 0
188 0 0 0 0 0 0
189 0 0 0 0 0 0
190 0 0 0 0 0 0
191 0 0 0 0 0 0
192 0 0 0 0 0 0
193 0 0 0 0 0 0
194 0 0 0 0 0 0
195 0 0 0 0 0 0
196 0 0 0 0 0 0
197 0 0 0 0 0 0
198 0 0 0 0 0 0