# Coordinates of a bcc lattice for 497 spheres of diameter 0.001745
1 atom types
497 atoms
#porosity is xxx
0.0 0.00738493 xlo xhi
0.0 0.00738493 ylo yhi
0.0 0.00738493 zlo zhi

Atoms

1 1 0.001745 30000000000 0.001665 0.000193 0.005234
2 1 0.001718 30000000000 0.001658 0.003643 0.002698
3 1 0.001718 30000000000 0.003600 0.000282 0.003785
4 1 0.001664 30000000000 0.000543 0.006965 0.006424
5 1 0.001663 30000000000 0.004414 0.006303 0.004481
6 1 0.001656 30000000000 0.005706 0.004843 0.005221
7 1 0.001613 30000000000 0.001401 0.003565 0.000537
8 1 0.001609 30000000000 0.000690 0.002128 0.005353
9 1 0.001586 30000000000 0.003368 0.003592 0.004858
10 1 0.001573 30000000000 0.006843 0.003983 0.007180
11 1 0.001573 30000000000 0.007312 0.006215 0.000400
12 1 0.001570 30000000000 0.006154 0.000457 0.007305
13 1 0.001549 30000000000 0.006777 0.001085 0.002906
14 1 0.001531 30000000000 0.003232 0.000800 0.000643
15 1 0.001528 30000000000 0.006443 0.007116 0.002224
16 1 0.001524 30000000000 0.007215 0.002988 0.001690
17 1 0.001524 30000000000 0.002703 0.002105 0.006762
18 1 0.001490 30000000000 0.002945 0.002232 0.003036
19 1 0.001472 30000000000 0.003081 0.005227 0.004563
20 1 0.001465 30000000000 0.005275 0.004593 0.002062
21 1 0.001464 30000000000 0.001346 0.005559 0.006833
22 1 0.001454 30000000000 0.004312 0.003787 0.003168
23 1 0.001453 30000000000 0.005186 0.000289 0.003679
24 1 0.001449 30000000000 0.007367 0.004335 0.003922
25 1 0.001446 30000000000 0.003877 0.004806 0.000979
26 1 0.001433 30000000000 0.000999 0.000034 0.002176
27 1 0.001433 30000000000 0.002438 0.005601 0.002471
28 1 0.001429 30000000000 0.005881 0.001876 0.000956
29 1 0.001428 30000000000 0.004457 0.001625 0.004928
30 1 0.001418 30000000000 0.003330 0.005196 0.006772
31 1 0.001410 30000000000 0.000389 0.004121 0.005875
32 1 0.001379 30000000000 0.001852 0.005512 0.005450
33 1 0.001356 30000000000 0.006659 0.000692 0.004346
34 1 0.001356 30000000000 0.006347 0.006201 0.004258
35 1 0.001351 30000000000 0.005256 0.006816 0.006390
36 1 0.001310 30000000000 0.000619 0.006011 0.005174
37 1 0.001303 30000000000 0.007322 0.002755 0.006452
38 1 0.001265 30000000000 0.004775 0.001564 0.003217
39 1 0.001258 30000000000 0.002274 0.001080 0.003667
40 1 0.001256 30000000000 0.005499 0.000694 0.004950
41 1 0.001255 30000000000 0.001414 0.002301 0.003294
42 1 0.001251 30000000000 0.003993 0.006765 0.001603
43 1 0.001247 30000000000 0.007223 0.003031 0.004258
44 1 0.001242 30000000000 0.001789 0.003045 0.005026
45 1 0.001239 30000000000 0.004447 0.006617 0.003009
46 1 0.001232 30000000000 0.006597 0.005682 0.006133
47 1 0.001225 30000000000 0.005071 0.003242 0.004359
48 1 0.001212 30000000000 0.004096 0.002773 0.005772
49 1 0.001212 30000000000 0.001366 0.001991 0.000976
50 1 0.001199 30000000000 0.002538 0.006711 0.000677
51 1 0.001197 30000000000 0.000463 0.004904 0.000231
52 1 0.001191 30000000000 0.005740 0.003304 0.002463
53 1 0.001184 30000000000 0.002979 0.006615 0.004862
54 1 0.001176 30000000000 0.001044 0.004929 0.002087
55 1 0.001171 30000000000 0.003776 0.002818 0.007171
56 1 0.001170 30000000000 0.002595 0.007109 0.006810
57 1 0.001170 30000000000 0.000253 0.001228 0.006325
58 1 0.001148 30000000000 0.001390 0.006690 0.003172
59 1 0.001141 30000000000 0.005704 0.005463 0.006980
60 1 0.001141 30000000000 0.007196 0.004076 0.002470
61 1 0.001138 30000000000 0.001143 0.004824 0.003468
62 1 0.001135 30000000000 0.004442 0.001204 0.001853
63 1 0.001130 30000000000 0.004326 0.005362 0.002502
64 1 0.001118 30000000000 0.000669 0.000178 0.000315
65 1 0.001113 30000000000 0.006077 0.004963 0.003029
66 1 0.001111 30000000000 0.002920 0.001000 0.005318
67 1 0.001111 30000000000 0.002161 0.000094 0.002734
68 1 0.001110 30000000000 0.004643 0.004141 0.006100
69 1 0.001108 30000000000 0.007190 0.006193 0.003010
70 1 0.001107 30000000000 0.006323 0.001737 0.005010
71 1 0.001104 30000000000 0.007145 0.001878 0.004037
72 1 0.001089 30000000000 0.003802 0.000144 0.006679
73 1 0.001089 30000000000 0.004408 0.001453 0.006712
74 1 0.001086 30000000000 0.002000 0.001579 0.002259
75 1 0.001086 30000000000 0.002435 0.004406 0.001400
76 1 0.001086 30000000000 0.000931 0.005616 0.001045
77 1 0.001084 30000000000 0.005616 0.005983 0.002155
78 1 0.001081 30000000000 0.005956 0.004246 0.000904
79 1 0.001080 30000000000 0.000757 0.005991 0.002498
80 1 0.001078 30000000000 0.002420 0.004021 0.003879
81 1 0.001074 30000000000 0.002844 0.004562 0.005689
82 1 0.001066 30000000000 0.003981 0.002722 0.003779
83 1 0.001065 30000000000 0.002914 0.006698 0.003043
84 1 0.001062 30000000000 0.002334 0.004452 0.006650
85 1 0.001062 30000000000 0.003648 0.006884 0.005767
86 1 0.001059 30000000000 0.003613 0.001677 0.005855
87 1 0.001057 30000000000 0.002930 0.003518 0.006711
88 1 0.001057 30000000000 0.005476 0.002373 0.006934
89 1 0.001056 30000000000 0.001960 0.005430 0.001333
90 1 0.001043 30000000000 0.005619 0.001084 0.002276
91 1 0.001040 30000000000 0.004492 0.004267 0.004969
92 1 0.001020 30000000000 0.003766 0.006691 0.000061
93 1 0.001019 30000000000 0.004040 0.001786 0.000353
94 1 0.001016 30000000000 0.000351 0.003033 0.002904
95 1 0.001011 30000000000 0.001649 0.001064 0.000421
96 1 0.001007 30000000000 0.003679 0.004082 0.001980
97 1 0.001005 30000000000 0.002403 0.002737 0.001976
98 1 0.001001 30000000000 0.005085 0.002406 0.002016
99 1 0.000999 30000000000 0.000152 0.000451 0.001242
100 1 0.000995 30000000000 0.002146 0.000710 0.006849
101 1 0.000994 30000000000 0.001711 0.000019 0.000480
102 1 0.000993 30000000000 0.001599 0.004410 0.005076
103 1 0.000975 30000000000 0.005520 0.002558 0.005199
104 1 0.000969 30000000000 0.005007 0.002190 0.005975
105 1 0.000969 30000000000 0.002382 0.002535 0.000602
106 1 0.000962 30000000000 0.007355 0.006689 0.003917
107 1 0.000960 30000000000 0.005205 0.006602 0.000641
108 1 0.000956 30000000000 0.006365 0.000791 0.001359
109 1 0.000950 30000000000 0.000432 0.000678 0.004304
110 1 0.000939 30000000000 0.000169 0.005008 0.001461
111 1 0.000937 30000000000 0.000190 0.003858 0.000895
112 1 0.000935 30000000000 0.004838 0.002352 0.000475
113 1 0.000934 30000000000 0.000422 0.001968 0.002380
114 1 0.000929 30000000000 0.002061 0.002217 0.005675
115 1 0.000924 30000000000 0.005554 0.005131 0.003949
116 1 0.000922 30000000000 0.005706 0.001381 0.004041
117 1 0.000920 30000000000 0.001692 0.006399 0.004523
118 1 0.000920 30000000000 0.006642 0.000972 0.006120
119 1 0.000912 30000000000 0.001525 0.000232 0.003712
120 1 0.000909 30000000000 0.002953 0.004348 0.000390
121 1 0.000905 30000000000 0.006095 0.002984 0.005831
122 1 0.000900 30000000000 0.001370 0.001424 0.004190
123 1 0.000900 30000000000 0.002919 0.003952 0.002948
124 1 0.000897 30000000000 0.007173 0.001607 0.001450
125 1 0.000896 30000000000 0.002854 0.006911 0.001813
126 1 0.000895 30000000000 0.004495 0.000034 0.000446
127 1 0.000894 30000000000 0.006496 0.005550 0.002319
128 1 0.000885 30000000000 0.001626 0.001499 0.006711
129 1 0.000884 30000000000 0.006460 0.002279 0.002341
130 1 0.000878 30000000000 0.004755 0.004513 0.003989
131 1 0.000873 30000000000 0.002283 0.002938 0.003790
132 1 0.000871 30000000000 0.005354 0.001287 0.005970
133 1 0.000867 30000000000 0.004165 0.005156 0.005981
134 1 0.000866 30000000000 0.001771 0.006617 0.007159
135 1 0.000866 30000000000 0.005907 0.004465 0.006516
136 1 0.000863 30000000000 0.005551 0.003390 0.001199
137 1 0.000862 30000000000 0.006374 0.003695 0.005052
138 1 0.000858 30000000000 0.000855 0.002764 0.007128
139 1 0.000853 30000000000 0.004522 0.000345 0.006020
140 1 0.000850 30000000000 0.005600 0.003305 0.000070
141 1 0.000850 30000000000 0.003724 0.002528 0.000862
142 1 0.000849 30000000000 0.002483 0.003343 0.001111
143 1 0.000846 30000000000 0.005904 0.006805 0.005192
144 1 0.000844 30000000000 0.004761 0.004631 0.000220
145 1 0.000842 30000000000 0.003641 0.005825 0.005634
146 1 0.000840 30000000000 0.003518 0.001882 0.001872
147 1 0.000840 30000000000 0.003539 0.000594 0.002500
148 1 0.000838 30000000000 0.004980 0.006172 0.007243
149 1 0.000838 30000000000 0.003768 0.003104 0.001894
150 1 0.000838 30000000000 0.000912 0.005987 0.004000
151 1 0.000836 30000000000 0.006924 0.007241 0.005574
152 1 0.000835 30000000000 0.006205 0.002979 0.006697
153 1 0.000832 30000000000 0.001016 0.003750 0.006765
154 1 0.000829 30000000000 0.002664 0.006578 0.005927
155 1 0.000828 30000000000 0.000831 0.001927 0.006764
156 1 0.000825 30000000000 0.006786 0.006313 0.005311
157 1 0.000825 30000000000 0.005360 0.005172 0.000871
158 1 0.000823 30000000000 0.005555 0.004153 0.003173
159 1 0.000820 30000000000 0.002828 0.003715 0.001956
160 1 0.000818 30000000000 0.006824 0.001638 0.000124
161 1 0.000818 30000000000 0.006234 0.006302 0.001400
162 1 0.000817 30000000000 0.002653 0.005675 0.000588
163 1 0.000816 30000000000 0.003436 0.006299 0.006513
164 1 0.000813 30000000000 0.005551 0.006593 0.003042
165 1 0.000811 30000000000 0.005579 0.002236 0.003358
166 1 0.000808 30000000000 0.006674 0.005175 0.000010
167 1 0.000806 30000000000 0.007252 0.002577 0.000515
168 1 0.000802 30000000000 0.005997 0.005278 0.001419
169 1 0.000802 30000000000 0.004739 0.004036 0.001183
170 1 0.000800 30000000000 0.001573 0.002425 0.000069
171 1 0.000798 30000000000 0.005193 0.000244 0.000994
172 1 0.000798 30000000000 0.006837 0.004374 0.001273
173 1 0.000795 30000000000 0.000905 0.007063 0.004099
174 1 0.000794 30000000000 0.007124 0.002272 0.002880
175 1 0.000792 30000000000 0.006600 0.004475 0.006004
176 1 0.000791 30000000000 0.006094 0.003049 0.003977
177 1 0.000791 30000000000 0.003904 0.001609 0.003929
178 1 0.000787 30000000000 0.002152 0.000730 0.001150
179 1 0.000783 30000000000 0.000375 0.002171 0.001071
180 1 0.000783 30000000000 0.005937 0.007190 0.004417
181 1 0.000781 30000000000 0.006403 0.006130 0.007028
182 1 0.000780 30000000000 0.006907 0.005832 0.001595
183 1 0.000778 30000000000 0.000294 0.005581 0.006117
184 1 0.000777 30000000000 0.000441 0.007285 0.003351
185 1 0.000775 30000000000 0.000153 0.002059 0.007212
186 1 0.000772 30000000000 0.000178 0.003202 0.005251
187 1 0.000772 30000000000 0.000270 0.000535 0.005559
188 1 0.000768 30000000000 0.004547 0.002956 0.001055
189 1 0.000767 30000000000 0.003006 0.001076 0.002964
190 1 0.000766 30000000000 0.004222 0.005766 0.001632
191 1 0.000766 30000000000 0.004775 0.000303 0.006896
192 1 0.000765 30000000000 0.007086 0.007039 0.001254
193 1 0.000762 30000000000 0.005022 0.000454 0.002023
194 1 0.000762 30000000000 0.003040 0.002354 0.005374
195 1 0.000761 30000000000 0.003636 0.004124 0.006483
196 1 0.000761 30000000000 0.005167 0.003291 0.006767
197 1 0.000760 30000000000 0.001810 0.003068 0.006085
198 1 0.000759 30000000000 0.003351 0.003611 0.000313
199 1 0.000758 30000000000 0.001826 0.006365 0.001256
200 1 0.000751 30000000000 0.005423 0.002043 0.004478
201 1 0.000742 30000000000 0.002842 0.005664 0.003511
202 1 0.000740 30000000000 0.006273 0.005682 0.000458
203 1 0.000738 30000000000 0.004554 0.000440 0.005154
204 1 0.000736 30000000000 0.003437 0.006008 0.002630
205 1 0.000735 30000000000 0.006446 0.001498 0.001889
206 1 0.000733 30000000000 0.004227 0.002025 0.001430
207 1 0.000731 30000000000 0.001012 0.006681 0.000710
208 1 0.000730 30000000000 0.000667 0.001484 0.001713
209 1 0.000729 30000000000 0.003456 0.005956 0.000482
210 1 0.000729 30000000000 0.001586 0.000885 0.001841
211 1 0.000728 30000000000 0.004830 0.005374 0.001409
212 1 0.000728 30000000000 0.003258 0.000935 0.006673
213 1 0.000728 30000000000 0.002439 0.001546 0.000331
214 1 0.000727 30000000000 0.007292 0.006662 0.004820
215 1 0.000725 30000000000 0.001092 0.003290 0.006027
216 1 0.000724 30000000000 0.007213 0.000663 0.000377
217 1 0.000721 30000000000 0.002988 0.005993 0.001239
218 1 0.000719 30000000000 0.001654 0.001238 0.005901
219 1 0.000719 30000000000 0.005764 0.006292 0.000090
220 1 0.000718 30000000000 0.003533 0.004950 0.002175
221 1 0.000715 30000000000 0.002143 0.003728 0.005641
222 1 0.000715 30000000000 0.007092 0.005113 0.006751
223 1 0.000713 30000000000 0.005497 0.004213 0.004067
224 1 0.000713 30000000000 0.001728 0.001633 0.004914
225 1 0.000712 30000000000 0.003142 0.003800 0.001104
226 1 0.000710 30000000000 0.004557 0.003502 0.000487
227 1 0.000709 30000000000 0.002074 0.004511 0.000483
228 1 0.000706 30000000000 0.005238 0.003535 0.005711
229 1 0.000704 30000000000 0.003204 0.003001 0.006050
230 1 0.000704 30000000000 0.006313 0.004077 0.003610
231 1 0.000703 30000000000 0.003979 0.000349 0.001412
232 1 0.000701 30000000000 0.000634 0.001441 0.000257
233 1 0.000699 30000000000 0.002955 0.006301 0.003864
234 1 0.000699 30000000000 0.006781 0.005559 0.003577
235 1 0.000697 30000000000 0.002870 0.002980 0.000086
236 1 0.000696 30000000000 0.006546 0.006947 0.006174
237 1 0.000693 30000000000 0.003209 0.000524 0.001762
238 1 0.000692 30000000000 0.003081 0.003265 0.003759
239 1 0.000691 30000000000 0.005125 0.005882 0.005354
240 1 0.000687 30000000000 0.002984 0.006351 0.007234
241 1 0.000686 30000000000 0.007119 0.005353 0.004558
242 1 0.000684 30000000000 0.006530 0.000491 0.005401
243 1 0.000682 30000000000 0.005936 0.003728 0.004392
244 1 0.000681 30000000000 0.000661 0.003618 0.004497
245 1 0.000679 30000000000 0.001988 0.005179 0.003592
246 1 0.000678 30000000000 0.000490 0.000089 0.004913
247 1 0.000678 30000000000 0.000236 0.001865 0.003240
248 1 0.000677 30000000000 0.007297 0.005021 0.002454
249 1 0.000677 30000000000 0.003169 0.003075 0.000845
250 1 0.000676 30000000000 0.001207 0.004227 0.004278
251 1 0.000676 30000000000 0.006679 0.003452 0.000836
252 1 0.000674 30000000000 0.001526 0.000206 0.001278
253 1 0.000673 30000000000 0.005417 0.006107 0.003717
254 1 0.000673 30000000000 0.004819 0.005563 0.005919
255 1 0.000672 30000000000 0.002298 0.006096 0.003645
256 1 0.000671 30000000000 0.005735 0.001976 0.002514
257 1 0.000669 30000000000 0.004100 0.005678 0.003451
258 1 0.000669 30000000000 0.006404 0.006752 0.000780
259 1 0.000667 30000000000 0.005282 0.001537 0.006824
260 1 0.000662 30000000000 0.002395 0.007166 0.004322
261 1 0.000661 30000000000 0.002436 0.005709 0.006446
262 1 0.000661 30000000000 0.005394 0.004072 0.000215
263 1 0.000661 30000000000 0.006422 0.002411 0.006254
264 1 0.000660 30000000000 0.000959 0.000715 0.001105
265 1 0.000659 30000000000 0.001134 0.001350 0.002306
266 1 0.000658 30000000000 0.001240 0.003435 0.003994
267 1 0.000658 30000000000 0.004396 0.004186 0.006951
268 1 0.000657 30000000000 0.006568 0.004855 0.000709
269 1 0.000656 30000000000 0.006370 0.001753 0.006325
270 1 0.000655 30000000000 0.000853 0.000981 0.003012
271 1 0.000655 30000000000 0.006292 0.006190 0.002839
272 1 0.000653 30000000000 0.006453 0.002376 0.007156
273 1 0.000652 30000000000 0.005027 0.000936 0.007121
274 1 0.000651 30000000000 0.004873 0.006146 0.001441
275 1 0.000651 30000000000 0.000291 0.005530 0.003972
276 1 0.000651 30000000000 0.006544 0.003490 0.002891
277 1 0.000651 30000000000 0.001449 0.004089 0.006195
278 1 0.000651 30000000000 0.004655 0.004832 0.003293
279 1 0.000651 30000000000 0.004904 0.005205 0.004391
280 1 0.000649 30000000000 0.001634 0.005041 0.000629
281 1 0.000648 30000000000 0.004496 0.006668 0.005733
282 1 0.000646 30000000000 0.000543 0.004635 0.004756
283 1 0.000645 30000000000 0.004425 0.005710 0.000045
284 1 0.000645 30000000000 0.004147 0.006352 0.000748
285 1 0.000643 30000000000 0.004869 0.001268 0.000698
286 1 0.000641 30000000000 0.002707 0.003337 0.005743
287 1 0.000639 30000000000 0.003039 0.002165 0.004140
288 1 0.000639 30000000000 0.004786 0.005659 0.003356
289 1 0.000638 30000000000 0.004728 0.002622 0.003072
290 1 0.000637 30000000000 0.005362 0.000226 0.005787
291 1 0.000636 30000000000 0.003235 0.004495 0.003459
292 1 0.000636 30000000000 0.000967 0.005001 0.006028
293 1 0.000632 30000000000 0.003947 0.002177 0.002624
294 1 0.000631 30000000000 0.004735 0.006085 0.002071
295 1 0.000630 30000000000 0.005017 0.004733 0.006651
296 1 0.000629 30000000000 0.003163 0.006188 0.001874
297 1 0.000629 30000000000 0.004525 0.000758 0.004346
298 1 0.000628 30000000000 0.002366 0.001136 0.006174
299 1 0.000627 30000000000 0.000689 0.000687 0.006947
300 1 0.000626 30000000000 0.000537 0.001154 0.003663
301 1 0.000625 30000000000 0.004221 0.000742 0.002834
302 1 0.000624 30000000000 0.007308 0.005334 0.003069
303 1 0.000623 30000000000 0.006297 0.003959 0.001934
304 1 0.000623 30000000000 0.001931 0.004417 0.005817
305 1 0.000623 30000000000 0.001659 0.007375 0.007018
306 1 0.000623 30000000000 0.002856 0.001524 0.001647
307 1 0.000622 30000000000 0.005469 0.002922 0.003577
308 1 0.000621 30000000000 0.005817 0.007279 0.000827
309 1 0.000620 30000000000 0.002402 0.002108 0.004851
310 1 0.000618 30000000000 0.005070 0.002370 0.003891
311 1 0.000617 30000000000 0.000616 0.003441 0.003818
312 1 0.000615 30000000000 0.002814 0.000860 0.002328
313 1 0.000615 30000000000 0.007355 0.006371 0.001742
314 1 0.000615 30000000000 0.002225 0.005413 0.000062
315 1 0.000615 30000000000 0.005758 0.003720 0.006862
316 1 0.000614 30000000000 0.002104 0.002900 0.007338
317 1 0.000613 30000000000 0.004385 0.000136 0.002765
318 1 0.000613 30000000000 0.007280 0.005029 0.005870
319 1 0.000611 30000000000 0.003667 0.000230 0.005025
320 1 0.000609 30000000000 0.003328 0.003414 0.002580
321 1 0.000609 30000000000 0.002644 0.000060 0.005889
322 1 0.000606 30000000000 0.001521 0.004543 0.006982
323 1 0.000606 30000000000 0.003207 0.004724 0.002730
324 1 0.000606 30000000000 0.006927 0.004775 0.002975
325 1 0.000605 30000000000 0.003054 0.001436 0.004119
326 1 0.000604 30000000000 0.006382 0.004818 0.001802
327 1 0.000604 30000000000 0.002290 0.003669 0.007223
328 1 0.000603 30000000000 0.006323 0.002016 0.003238
329 1 0.000602 30000000000 0.007263 0.001153 0.005486
330 1 0.000601 30000000000 0.005947 0.000278 0.006237
331 1 0.000601 30000000000 0.001347 0.005760 0.003213
332 1 0.000601 30000000000 0.004661 0.002720 0.007208
333 1 0.000601 30000000000 0.005021 0.005868 0.002806
334 1 0.000601 30000000000 0.004858 0.003560 0.002324
335 1 0.000600 30000000000 0.001131 0.002842 0.001400
336 1 0.000600 30000000000 0.003399 0.000283 0.005589
337 1 0.000600 30000000000 0.003573 0.003614 0.006035
338 1 0.000600 30000000000 0.001462 0.003775 0.005651
339 1 0.000600 30000000000 0.002384 0.000052 0.003575
340 1 0.000600 30000000000 0.003806 0.004107 0.000198
341 1 0.000599 30000000000 0.006065 0.001390 0.005803
342 1 0.000599 30000000000 0.001571 0.000755 0.002846
343 1 0.000598 30000000000 0.005009 0.000615 0.000346
344 1 0.000596 30000000000 0.006879 0.003397 0.005843
345 1 0.000596 30000000000 0.006867 0.004936 0.005419
346 1 0.000595 30000000000 0.006392 0.002645 0.004540
347 1 0.000595 30000000000 0.003793 0.001422 0.002931
348 1 0.000594 30000000000 0.007133 0.000334 0.006813
349 1 0.000593 30000000000 0.004080 0.004808 0.004469
350 1 0.000591 30000000000 0.004959 0.001693 0.001360
351 1 0.000591 30000000000 0.004446 0.007122 0.007129
352 1 0.000590 30000000000 0.000129 0.001850 0.000499
353 1 0.000590 30000000000 0.006937 0.001912 0.000766
354 1 0.000589 30000000000 0.004103 0.000849 0.007213
355 1 0.000588 30000000000 0.001731 0.005271 0.004463
356 1 0.000588 30000000000 0.004399 0.002692 0.002540
357 1 0.000586 30000000000 0.003938 0.004612 0.002674
358 1 0.000586 30000000000 0.000914 0.005060 0.005047
359 1 0.000584 30000000000 0.004558 0.006080 0.006370
360 1 0.000584 30000000000 0.003403 0.001971 0.004825
361 1 0.000582 30000000000 0.003215 0.002083 0.000304
362 1 0.000582 30000000000 0.000151 0.000341 0.002645
363 1 0.000581 30000000000 0.002461 0.001458 0.000987
364 1 0.000581 30000000000 0.001413 0.002731 0.004218
365 1 0.000579 30000000000 0.003852 0.002840 0.002955
366 1 0.000577 30000000000 0.003603 0.004542 0.005352
367 1 0.000577 30000000000 0.005747 0.000653 0.000918
368 1 0.000576 30000000000 0.000543 0.002127 0.004265
369 1 0.000576 30000000000 0.002042 0.006313 0.006512
370 1 0.000575 30000000000 0.003944 0.002013 0.003291
371 1 0.000575 30000000000 0.004252 0.004625 0.002065
372 1 0.000574 30000000000 0.007101 0.007187 0.004467
373 1 0.000573 30000000000 0.002601 0.000804 0.001711
374 1 0.000572 30000000000 0.006621 0.003155 0.003495
375 1 0.000571 30000000000 0.002901 0.001713 0.004632
376 1 0.000571 30000000000 0.005842 0.002584 0.001715
377 1 0.000569 30000000000 0.001409 0.006933 0.001179
378 1 0.000569 30000000000 0.006416 0.004119 0.004278
379 1 0.000565 30000000000 0.003168 0.004344 0.004061
380 1 0.000564 30000000000 0.003021 0.005479 0.005662
381 1 0.000563 30000000000 0.005941 0.000595 0.005746
382 1 0.000562 30000000000 0.004439 0.000769 0.000492
383 1 0.000562 30000000000 0.000577 0.001532 0.001019
384 1 0.000561 30000000000 0.002257 0.001680 0.001473
385 1 0.000561 30000000000 0.002190 0.004529 0.004566
386 1 0.000560 30000000000 0.001188 0.004892 0.004313
387 1 0.000560 30000000000 0.005621 0.000384 0.001627
388 1 0.000559 30000000000 0.001440 0.006179 0.000634
389 1 0.000557 30000000000 0.001315 0.002091 0.001902
390 1 0.000556 30000000000 0.000173 0.000999 0.005001
391 1 0.000556 30000000000 0.002594 0.004910 0.000076
392 1 0.000556 30000000000 0.006149 0.003928 0.006115
393 1 0.000556 30000000000 0.003533 0.001482 0.004511
394 1 0.000555 30000000000 0.000685 0.001008 0.005297
395 1 0.000555 30000000000 0.006900 0.002664 0.005606
396 1 0.000551 30000000000 0.002292 0.006779 0.003647
397 1 0.000551 30000000000 0.004163 0.007345 0.005338
398 1 0.000551 30000000000 0.006837 0.004656 0.004769
399 1 0.000550 30000000000 0.007288 0.007114 0.002925
400 1 0.000549 30000000000 0.000486 0.003460 0.007120
401 1 0.000547 30000000000 0.004937 0.003255 0.001523
402 1 0.000546 30000000000 0.002267 0.004625 0.002843
403 1 0.000546 30000000000 0.006830 0.007161 0.000411
404 1 0.000546 30000000000 0.006850 0.007297 0.003748
405 1 0.000545 30000000000 0.001127 0.001839 0.000082
406 1 0.000545 30000000000 0.002240 0.006404 0.005330
407 1 0.000544 30000000000 0.000548 0.002472 0.000366
408 1 0.000543 30000000000 0.001160 0.006339 0.001351
409 1 0.000543 30000000000 0.005190 0.006875 0.005121
410 1 0.000542 30000000000 0.000671 0.002667 0.004086
411 1 0.000542 30000000000 0.001748 0.006892 0.006236
412 1 0.000541 30000000000 0.004539 0.001690 0.000979
413 1 0.000541 30000000000 0.000908 0.006571 0.000023
414 1 0.000539 30000000000 0.003175 0.002738 0.002057
415 1 0.000539 30000000000 0.004397 0.005696 0.000993
416 1 0.000539 30000000000 0.000350 0.004591 0.002960
417 1 0.000539 30000000000 0.002896 0.002214 0.001553
418 1 0.000538 30000000000 0.005878 0.006047 0.000881
419 1 0.000538 30000000000 0.005059 0.000784 0.001423
420 1 0.000537 30000000000 0.001394 0.000546 0.006432
421 1 0.000537 30000000000 0.004073 0.004989 0.005158
422 1 0.000537 30000000000 0.001893 0.002422 0.004104
423 1 0.000536 30000000000 0.006183 0.002856 0.001362
424 1 0.000536 30000000000 0.001327 0.006030 0.001776
425 1 0.000535 30000000000 0.002134 0.003840 0.004794
426 1 0.000534 30000000000 0.005884 0.001424 0.006573
427 1 0.000534 30000000000 0.000688 0.005544 0.003453
428 1 0.000534 30000000000 0.005202 0.005208 0.003301
429 1 0.000534 30000000000 0.005447 0.001047 0.000500
430 1 0.000533 30000000000 0.006447 0.006822 0.000099
431 1 0.000533 30000000000 0.000058 0.007314 0.001818
432 1 0.000532 30000000000 0.005735 0.003520 0.003670
433 1 0.000532 30000000000 0.005003 0.006504 0.005468
434 1 0.000531 30000000000 0.004918 0.000039 0.004738
435 1 0.000531 30000000000 0.006680 0.005280 0.001311
436 1 0.000531 30000000000 0.005936 0.001847 0.007319
437 1 0.000530 30000000000 0.001831 0.006165 0.001938
438 1 0.000529 30000000000 0.002441 0.000179 0.001427
439 1 0.000529 30000000000 0.006915 0.001580 0.005743
440 1 0.000529 30000000000 0.003538 0.006613 0.002361
441 1 0.000528 30000000000 0.005753 0.006074 0.005359
442 1 0.000528 30000000000 0.005561 0.003765 0.004900
443 1 0.000527 30000000000 0.000978 0.001005 0.004699
444 1 0.000526 30000000000 0.004604 0.003748 0.001814
445 1 0.000526 30000000000 0.004533 0.006032 0.005608
446 1 0.000526 30000000000 0.002443 0.003012 0.006326
447 1 0.000526 30000000000 0.005590 0.001618 0.005389
448 1 0.000525 30000000000 0.006152 0.006991 0.006646
449 1 0.000525 30000000000 0.005393 0.005982 0.001159
450 1 0.000523 30000000000 0.001660 0.002437 0.006499
451 1 0.000523 30000000000 0.004279 0.003166 0.006556
452 1 0.000523 30000000000 0.003057 0.005926 0.006058
453 1 0.000523 30000000000 0.004056 0.006392 0.006792
454 1 0.000522 30000000000 0.005335 0.001696 0.000084
455 1 0.000521 30000000000 0.005295 0.005900 0.006198
456 1 0.000520 30000000000 0.000541 0.000819 0.001785
457 1 0.000520 30000000000 0.000785 0.006639 0.001598
458 1 0.000519 30000000000 0.005232 0.000648 0.006336
459 1 0.000517 30000000000 0.003898 0.005934 0.007116
460 1 0.000516 30000000000 0.003996 0.000769 0.005398
461 1 0.000516 30000000000 0.004594 0.005219 0.005067
462 1 0.000515 30000000000 0.005463 0.005343 0.006184
463 1 0.000515 30000000000 0.004594 0.002623 0.004790
464 1 0.000515 30000000000 0.005853 0.004509 0.007280
465 1 0.000514 30000000000 0.001238 0.004169 0.001616
466 1 0.000514 30000000000 0.003917 0.003495 0.001302
467 1 0.000514 30000000000 0.001389 0.006508 0.005645
468 1 0.000514 30000000000 0.005208 0.004739 0.003041
469 1 0.000513 30000000000 0.004483 0.003486 0.005044
470 1 0.000513 30000000000 0.006227 0.002874 0.000284
471 1 0.000513 30000000000 0.003862 0.003239 0.000859
472 1 0.000513 30000000000 0.000904 0.002772 0.001921
473 1 0.000513 30000000000 0.002118 0.001874 0.004048
474 1 0.000513 30000000000 0.001516 0.005711 0.002173
475 1 0.000512 30000000000 0.000790 0.003609 0.001487
476 1 0.000512 30000000000 0.004117 0.002831 0.004579
477 1 0.000512 30000000000 0.003044 0.000069 0.001356
478 1 0.000511 30000000000 0.006031 0.006929 0.001278
479 1 0.000510 30000000000 0.002734 0.003233 0.002994
480 1 0.000510 30000000000 0.001288 0.001261 0.005159
481 1 0.000509 30000000000 0.002641 0.004364 0.004871
482 1 0.000508 30000000000 0.001665 0.004714 0.006250
483 1 0.000508 30000000000 0.006144 0.005623 0.003545
484 1 0.000508 30000000000 0.001275 0.005674 0.004474
485 1 0.000507 30000000000 0.003672 0.004687 0.003828
486 1 0.000506 30000000000 0.000952 0.004714 0.001068
487 1 0.000506 30000000000 0.003859 0.000195 0.000088
488 1 0.000506 30000000000 0.006599 0.006898 0.006967
489 1 0.000504 30000000000 0.000536 0.002346 0.003568
490 1 0.000504 30000000000 0.006175 0.002216 0.003765
491 1 0.000502 30000000000 0.002439 0.003809 0.000492
492 1 0.000502 30000000000 0.001464 0.002635 0.002136
493 1 0.000502 30000000000 0.001088 0.000814 0.007351
494 1 0.000501 30000000000 0.001109 0.001350 0.007209
495 1 0.000501 30000000000 0.001706 0.003571 0.006671
496 1 0.000501 30000000000 0.000927 0.001926 0.003930
497 1 0.000501 30000000000 0.002020 0.002734 0.001295

Velocities

1 0 0 0 0 0 0
2 0 0 0 0 0 0
3 0 0 0 0 0 0
4 0 0 0 0 0 0
5 0 0 0 0 0 0
6 0 0 0 0 0 0
7 0 0 0 0 0 0
8 0 0 0 0 0 0
9 0 0 0 0 0 0
10 0 0 0 0 0 0
11 0 0 0 0 0 0
12 0 0 0 0 0 0
13 0 0 0 0 0 0
14 0 0 0 0 0 0
15 0 0 0 0 0 0
16 0 0 0 0 0 0
17 0 0 0 0 0 0
18 0 0 0 0 0 0
19 0 0 0 0 0 0
20 0 0 0 0 0 0
21 0 0 0 0 0 0
22 0 0 0 0 0 0
23 0 0 0 0 0 0
24 0 0 0 0 0 0
25 0 0 0 0 0 0
26 0 0 0 0 0 0
27 0 0 0 0 0 0
28 0 0 0 0 0 0
29 0 0 0 0 0 0
30 0 0 0 0 0 0
31 0 0 0 0 0 0
32 0 0 0 0 0 0
33 0 0 0 0 0 0
34 0 0 0 0 0 0
35 0 0 0 0 0 0
36 0 0 0 0 0 0
37 0 0 0 0 0 0
38 0 0 0 0 0 0
39 0 0 0 0 0 0
40 0 0 0 0 0 0
41 0 0 0 0 0 0
42 0 0 0 0 0 0
43 0 0 0 0 0 0
44 0 0 0 0 0 0
45 0 0 0 0 0 0
46 0 0 0 0 0 0
47 0 0 0 0 0 0
48 0 0 0 0 0 0
49 0 0 0 0 0 0
50 0 0 0 0 0 0
51 0 0 0 0 0 0
52 0 0 0 0 0 0
53 0 0 0 0 0 0
54 0 0 0 0 0 0
55 0 0 0 0 0 0
56 0 0 0 0 0 0
57 0 0 0 0 0 0
58 0 0 0 0 0 0
59 0 0 0 0 0 0
60 0 0 0 0 0 0
61 0 0 0 0 0 0
62 0 0 0 0 0 0
63 0 0 0 0 0 0
64 0 0 0 0 0 0
65 0 0 0 0 0 0
66 0 0 0 0 0 0
67 0 0 0 0 0 0
68 0 0 0 0 0 0
69 0 0 0 0 0 0
70 0 0 0 0 0 0
71 0 0 0 0 0 0
72 0 0 0 0 0 0
73 0 0 0 0 0 0
74 0 0 0 0 0 0
75 0 0 0 0 0 0
76 0 0 0 0 0 0
77 0 0 0 0 0 0
78 0 0 0 0 0 0
79 0 0 0 0 0 0
80 0 0 0 0 0 0
81 0 0 0 0 0 0
82 0 0 0 0 0 0
83 0 0 0 0 0 0
84 0 0 0 0 0 0
85 0 0 0 0 0 0
86 0 0 0 0 0 0
87 0 0 0 0 0 0
88 0 0 0 0 0 0
89 0 0 0 0 0 0
90 0 0 0 0 0 0
91 0 0 0 0 0 0
92 0 0 0 0 0 0
93 0 0 0 0 0 0
94 0 0 0 0 0 0
95 0 0 0 0 0 0
96 0 0 0 0 0 0
97 0 0 0 0 0 0
98 0 0 0 0 0 0
99 0 0 0 0 0 0
100 0 0 0 0 0 0
101 0 0 0 0 0 0
102 0 0 0 0 0 0
103 0 0 0 0 0 0
104 0 0 0 0 0 0
105 0 0 0 0 0 0
106 0 0 0 0 0 0
107 0 0 0 0 0 0
108 0 0 0 0 0 0
109 0 0 0 0 0 0
110 0 0 0 0 0 0
111 0 0 0 0 0 0
112 0 0 0 0 0 0
113 0 0 0 0 0 0
114 0 0 0 0 0 0
115 0 0 0 0 0 0
116 0 0 0 0 0 0
117 0 0 0 0 0 0
118 0 0 0 0 0 0
119 0 0 0 0 0 0
120 0 0 0 0 0 0
121 0 0 0 0 0 0
122 0 0 0 0 0 0
123 0 0 0 0 0 0
124 0 0 0 0 0 0
125 0 0 0 0 0 0
126 0 0 0 0 0 0
127 0 0 0 0 0 0
128 0 0 0 0 0 0
129 0 0 0 0 0 0
130 0 0 0 0 0 0
131 0 0 0 0 0 0
132 0 0 0 0 0 0
133 0 0 0 0 0 0
134 0 0 0 0 0 0
135 0 0 0 0 0 0
136 0 0 0 0 0 0
137 0 0 0 0 0 0
138 0 0 0 0 0 0
139 0 0 0 0 0 0
140 0 0 0 0 0 0
141 0 0 0 0 0 0
142 0 0 0 0 0 0
143 0 0 0 0 0 0
144 0 0 0 0 0 0
145 0 0 0 0 0 0
146 0 0 0 0 0 0
147 0 0 0 0 0 0
148 0 0 0 0 0 0
149 0 0 0 0 0 0
150 0 0 0 0 0 0
151 0 0 0 0 0 0
152 0 0 0 0 0 0
153 0 0 0 0 0 0
154 0 0 0 0 0 0
155 0 0 0 0 0 0
156 0 0 0 0 0 0
157 0 0 0 0 0 0
158 0 0 0 0 0 0
159 0 0 0 0 0 0
160 0 0 0 0 0 0
161 0 0 0 0 0 0
162 0 0 0 0 0 0
163 0 0 0 0 0 0
164 0 0 0 0 0 0
165 0 0 0 0 0 0
166 0 0 0 0 0 0
167 0 0 0 0 0 0
168 0 0 0 0 0 0
169 0 0 0 0 0 0
170 0 0 0 0 0 0
171 0 0 0 0 0 0
172 0 0 0 0 0 0
173 0 0 0 0 0 0
174 0 0 0 0 0 0
175 0 0 0 0 0 0
176 0 0 0 0 0 0
177 0 0 0 0 0 0
178 0 0 0 0 0 0
179 0 0 0 0 0 0
180 0 0 0 0 0 0
181 0 0 0 0 0 0
182 0 0 0 0 0 0
183 0 0 0 0 0 0
184 0 0 0 0 0 0
185 0 0 0 0 0 0
186 0 0 0 0 0 0
187 0 0 0 0 0 0
188 0 0 0 0 0 0
189 0 0 0 0 0 0
190 0 0 0 0 0 0
191 0 0 0 0 0 0
192 0 0 0 0 0 0
193 0 0 0 0 0 0
194 0 0 0 0 0 0
195 0 0 0 0 0 0
196 0 0 0 0 0 0
197 0 0 0 0 0 0
198 0 0 0 0 0 0