# Coordinates of a bcc lattice for 497 spheres of diameter 0.001745
1 atom types
497 atoms
#porosity is xxx
0.0 0.00681715 xlo xhi
0.0 0.00681715 ylo yhi
0.0 0.00681715 zlo zhi

Atoms

1 1 0.001745 30000000000 0.001625 0.000183 0.004709
2 1 0.001718 30000000000 0.001494 0.003286 0.002428
3 1 0.001718 30000000000 0.003287 0.000309 0.003618
4 1 0.001664 30000000000 0.000483 0.006456 0.005880
5 1 0.001663 30000000000 0.004183 0.005822 0.004243
6 1 0.001656 30000000000 0.005323 0.004449 0.004816
7 1 0.001613 30000000000 0.001289 0.003383 0.000610
8 1 0.001609 30000000000 0.000608 0.001965 0.004850
9 1 0.001586 30000000000 0.003023 0.003181 0.004495
10 1 0.001573 30000000000 0.006270 0.003631 0.006633
11 1 0.001573 30000000000 0.006691 0.005759 0.000453
12 1 0.001570 30000000000 0.005659 0.000482 0.006803
13 1 0.001549 30000000000 0.006335 0.000994 0.002682
14 1 0.001531 30000000000 0.002910 0.000678 0.000381
15 1 0.001528 30000000000 0.005802 0.006514 0.002048
16 1 0.001524 30000000000 0.006656 0.002709 0.001675
17 1 0.001524 30000000000 0.002371 0.001977 0.006269
18 1 0.001490 30000000000 0.002696 0.002131 0.002861
19 1 0.001472 30000000000 0.002989 0.004686 0.004164
20 1 0.001465 30000000000 0.004756 0.004119 0.001817
21 1 0.001464 30000000000 0.001262 0.005152 0.006293
22 1 0.001454 30000000000 0.003982 0.003472 0.002886
23 1 0.001453 30000000000 0.004954 0.000187 0.003279
24 1 0.001449 30000000000 0.000034 0.004154 0.003554
25 1 0.001446 30000000000 0.003575 0.004413 0.000860
26 1 0.001433 30000000000 0.000834 0.000077 0.002121
27 1 0.001433 30000000000 0.002153 0.005180 0.002242
28 1 0.001429 30000000000 0.005452 0.001847 0.000783
29 1 0.001428 30000000000 0.004109 0.001689 0.004496
30 1 0.001418 30000000000 0.003155 0.004705 0.006278
31 1 0.001410 30000000000 0.000394 0.003815 0.005456
32 1 0.001379 30000000000 0.001817 0.005037 0.004962
33 1 0.001356 30000000000 0.006194 0.000506 0.004072
34 1 0.001356 30000000000 0.005828 0.005688 0.004000
35 1 0.001351 30000000000 0.004923 0.006222 0.006074
36 1 0.001310 30000000000 0.000500 0.005474 0.004753
37 1 0.001303 30000000000 0.006610 0.002389 0.005981
38 1 0.001265 30000000000 0.004444 0.001426 0.003041
39 1 0.001258 30000000000 0.002011 0.000988 0.003264
40 1 0.001256 30000000000 0.004999 0.000681 0.004626
41 1 0.001255 30000000000 0.001191 0.001942 0.003002
42 1 0.001251 30000000000 0.003723 0.006441 0.001487
43 1 0.001247 30000000000 0.006625 0.002857 0.003932
44 1 0.001242 30000000000 0.001631 0.002897 0.004485
45 1 0.001239 30000000000 0.003985 0.006139 0.002763
46 1 0.001232 30000000000 0.006058 0.005292 0.005790
47 1 0.001225 30000000000 0.004735 0.003030 0.003978
48 1 0.001212 30000000000 0.003934 0.002636 0.005478
49 1 0.001212 30000000000 0.001264 0.001878 0.000977
50 1 0.001199 30000000000 0.002453 0.006115 0.000676
51 1 0.001197 30000000000 0.000447 0.004481 0.000289
52 1 0.001191 30000000000 0.005446 0.002972 0.002284
53 1 0.001184 30000000000 0.002741 0.006014 0.004410
54 1 0.001176 30000000000 0.000947 0.004591 0.001984
55 1 0.001171 30000000000 0.003518 0.002607 0.006623
56 1 0.001170 30000000000 0.002466 0.006514 0.006363
57 1 0.001170 30000000000 0.000153 0.001118 0.005905
58 1 0.001148 30000000000 0.001384 0.006071 0.002954
59 1 0.001141 30000000000 0.005149 0.005079 0.006536
60 1 0.001141 30000000000 0.006719 0.003930 0.002213
61 1 0.001138 30000000000 0.001310 0.004491 0.003186
62 1 0.001135 30000000000 0.004080 0.001106 0.001873
63 1 0.001130 30000000000 0.003985 0.005008 0.002381
64 1 0.001118 30000000000 0.000644 0.000048 0.000426
65 1 0.001113 30000000000 0.005586 0.004438 0.002809
66 1 0.001111 30000000000 0.002784 0.001037 0.004741
67 1 0.001111 30000000000 0.002121 0.000248 0.002339
68 1 0.001110 30000000000 0.004417 0.003727 0.005595
69 1 0.001108 30000000000 0.006480 0.005585 0.002737
70 1 0.001107 30000000000 0.005875 0.001553 0.004696
71 1 0.001104 30000000000 0.006571 0.001685 0.003820
72 1 0.001089 30000000000 0.003471 0.000284 0.006024
73 1 0.001089 30000000000 0.004094 0.001236 0.006156
74 1 0.001086 30000000000 0.001851 0.001410 0.002172
75 1 0.001086 30000000000 0.002322 0.004040 0.001451
76 1 0.001086 30000000000 0.000965 0.005342 0.001095
77 1 0.001084 30000000000 0.005077 0.005436 0.001852
78 1 0.001081 30000000000 0.005293 0.003940 0.000674
79 1 0.001080 30000000000 0.000621 0.005655 0.002192
80 1 0.001078 30000000000 0.002140 0.003888 0.003607
81 1 0.001074 30000000000 0.002584 0.004126 0.005327
82 1 0.001066 30000000000 0.003687 0.002466 0.003597
83 1 0.001065 30000000000 0.002628 0.006203 0.002785
84 1 0.001062 30000000000 0.002035 0.004134 0.006294
85 1 0.001062 30000000000 0.003432 0.006341 0.005256
86 1 0.001059 30000000000 0.003345 0.001662 0.005480
87 1 0.001057 30000000000 0.002708 0.003330 0.006070
88 1 0.001057 30000000000 0.004935 0.002112 0.006486
89 1 0.001056 30000000000 0.002000 0.005073 0.000997
90 1 0.001043 30000000000 0.005123 0.000960 0.002150
91 1 0.001040 30000000000 0.004084 0.003954 0.004537
92 1 0.001020 30000000000 0.003385 0.006178 0.000039
93 1 0.001019 30000000000 0.003755 0.001638 0.000262
94 1 0.001016 30000000000 0.000226 0.002984 0.002888
95 1 0.001011 30000000000 0.001379 0.001091 0.000186
96 1 0.001007 30000000000 0.003393 0.003611 0.001807
97 1 0.001005 30000000000 0.002182 0.002299 0.001728
98 1 0.001001 30000000000 0.004707 0.002264 0.001719
99 1 0.000999 30000000000 0.000139 0.000588 0.001253
100 1 0.000995 30000000000 0.002028 0.000688 0.006286
101 1 0.000994 30000000000 0.001765 0.000137 0.000379
102 1 0.000993 30000000000 0.001371 0.003978 0.004603
103 1 0.000975 30000000000 0.005186 0.002336 0.004752
104 1 0.000969 30000000000 0.004785 0.001823 0.005522
105 1 0.000969 30000000000 0.002207 0.002367 0.000626
106 1 0.000962 30000000000 0.000087 0.006022 0.003593
107 1 0.000960 30000000000 0.004796 0.006171 0.000705
108 1 0.000956 30000000000 0.005961 0.000649 0.001228
109 1 0.000950 30000000000 0.000538 0.000612 0.003914
110 1 0.000939 30000000000 0.000062 0.004623 0.001379
111 1 0.000937 30000000000 0.000091 0.003710 0.000951
112 1 0.000935 30000000000 0.004398 0.002360 0.000489
113 1 0.000934 30000000000 0.000423 0.001755 0.002240
114 1 0.000929 30000000000 0.001892 0.002029 0.005095
115 1 0.000924 30000000000 0.005005 0.004832 0.003579
116 1 0.000922 30000000000 0.005398 0.001285 0.003590
117 1 0.000920 30000000000 0.001674 0.005815 0.004100
118 1 0.000920 30000000000 0.006052 0.000768 0.005501
119 1 0.000912 30000000000 0.001241 0.000226 0.003332
120 1 0.000909 30000000000 0.002594 0.004067 0.000305
121 1 0.000905 30000000000 0.005695 0.002881 0.005330
122 1 0.000900 30000000000 0.001140 0.001319 0.003885
123 1 0.000900 30000000000 0.002810 0.003771 0.002646
124 1 0.000897 30000000000 0.006672 0.001485 0.001449
125 1 0.000896 30000000000 0.002596 0.006323 0.001747
126 1 0.000895 30000000000 0.004090 0.000027 0.000548
127 1 0.000894 30000000000 0.006010 0.005029 0.002034
128 1 0.000885 30000000000 0.001306 0.001259 0.006071
129 1 0.000884 30000000000 0.005826 0.002004 0.002226
130 1 0.000878 30000000000 0.004580 0.004049 0.003720
131 1 0.000873 30000000000 0.002117 0.002914 0.003539
132 1 0.000871 30000000000 0.004918 0.000923 0.005662
133 1 0.000867 30000000000 0.003909 0.004564 0.005414
134 1 0.000866 30000000000 0.001494 0.006238 0.006649
135 1 0.000866 30000000000 0.005242 0.004046 0.006074
136 1 0.000863 30000000000 0.005110 0.003002 0.001013
137 1 0.000862 30000000000 0.006139 0.003467 0.004728
138 1 0.000858 30000000000 0.000693 0.002695 0.006576
139 1 0.000853 30000000000 0.004144 0.000606 0.005362
140 1 0.000850 30000000000 0.005249 0.002881 0.000138
141 1 0.000850 30000000000 0.003434 0.002267 0.000910
142 1 0.000849 30000000000 0.002340 0.003091 0.001186
143 1 0.000846 30000000000 0.005476 0.006227 0.004995
144 1 0.000844 30000000000 0.004500 0.004249 0.000195
145 1 0.000842 30000000000 0.003403 0.005352 0.005107
146 1 0.000840 30000000000 0.003280 0.001723 0.001875
147 1 0.000840 30000000000 0.003276 0.000363 0.002237
148 1 0.000838 30000000000 0.004332 0.005673 0.000043
149 1 0.000838 30000000000 0.003592 0.002700 0.001735
150 1 0.000838 30000000000 0.000900 0.005565 0.003732
151 1 0.000836 30000000000 0.006439 0.006689 0.005005
152 1 0.000835 30000000000 0.005600 0.002738 0.006183
153 1 0.000832 30000000000 0.001124 0.003381 0.006201
154 1 0.000829 30000000000 0.002535 0.006032 0.005481
155 1 0.000828 30000000000 0.000771 0.001968 0.006059
156 1 0.000825 30000000000 0.006315 0.005863 0.004972
157 1 0.000825 30000000000 0.004939 0.004839 0.000651
158 1 0.000823 30000000000 0.005113 0.003612 0.003053
159 1 0.000820 30000000000 0.002676 0.003059 0.001963
160 1 0.000818 30000000000 0.006276 0.001568 0.000052
161 1 0.000818 30000000000 0.005845 0.005555 0.001284
162 1 0.000817 30000000000 0.002729 0.005183 0.000385
163 1 0.000816 30000000000 0.003157 0.005803 0.006011
164 1 0.000813 30000000000 0.005024 0.005923 0.002699
165 1 0.000811 30000000000 0.005234 0.002122 0.003093
166 1 0.000808 30000000000 0.006095 0.004862 0.006740
167 1 0.000806 30000000000 0.006780 0.002643 0.000310
168 1 0.000802 30000000000 0.005503 0.004789 0.001287
169 1 0.000802 30000000000 0.004385 0.003637 0.000783
170 1 0.000800 30000000000 0.001397 0.002267 0.000058
171 1 0.000798 30000000000 0.004631 0.000417 0.001201
172 1 0.000798 30000000000 0.006166 0.004077 0.001269
173 1 0.000795 30000000000 0.000817 0.006394 0.003911
174 1 0.000794 30000000000 0.006442 0.002249 0.002854
175 1 0.000792 30000000000 0.006226 0.004299 0.005656
176 1 0.000791 30000000000 0.005673 0.002579 0.003615
177 1 0.000791 30000000000 0.003487 0.001550 0.003490
178 1 0.000787 30000000000 0.001874 0.000793 0.000971
179 1 0.000783 30000000000 0.000270 0.001918 0.000819
180 1 0.000783 30000000000 0.005398 0.006633 0.004262
181 1 0.000781 30000000000 0.005937 0.006133 0.006393
182 1 0.000780 30000000000 0.006729 0.005436 0.001618
183 1 0.000778 30000000000 0.000276 0.005194 0.005750
184 1 0.000777 30000000000 0.000479 0.006690 0.003187
185 1 0.000775 30000000000 0.000228 0.001840 0.006767
186 1 0.000772 30000000000 0.006658 0.002920 0.005068
187 1 0.000772 30000000000 0.000187 0.000553 0.005069
188 1 0.000768 30000000000 0.004117 0.002847 0.001141
189 1 0.000767 30000000000 0.002926 0.001007 0.002654
190 1 0.000766 30000000000 0.003756 0.005385 0.001472
191 1 0.000766 30000000000 0.004395 0.000290 0.006558
192 1 0.000765 30000000000 0.006412 0.006717 0.001086
193 1 0.000762 30000000000 0.004609 0.000226 0.001983
194 1 0.000762 30000000000 0.002734 0.002128 0.004977
195 1 0.000761 30000000000 0.003624 0.003723 0.006120
196 1 0.000761 30000000000 0.004873 0.002798 0.005812
197 1 0.000760 30000000000 0.001467 0.002707 0.005506
198 1 0.000759 30000000000 0.003177 0.003427 0.000221
199 1 0.000758 30000000000 0.001694 0.005905 0.001272
200 1 0.000751 30000000000 0.005101 0.002084 0.003881
201 1 0.000742 30000000000 0.002808 0.005175 0.003173
202 1 0.000740 30000000000 0.005677 0.005184 0.000497
203 1 0.000738 30000000000 0.004000 0.000595 0.004577
204 1 0.000736 30000000000 0.003213 0.005505 0.002612
205 1 0.000735 30000000000 0.005846 0.001380 0.001710
206 1 0.000733 30000000000 0.003923 0.001967 0.001483
207 1 0.000731 30000000000 0.001123 0.006082 0.000549
208 1 0.000730 30000000000 0.000654 0.001311 0.001515
209 1 0.000729 30000000000 0.003457 0.005479 0.000563
210 1 0.000729 30000000000 0.001343 0.000986 0.001545
211 1 0.000728 30000000000 0.004443 0.005012 0.001251
212 1 0.000728 30000000000 0.002835 0.000954 0.006078
213 1 0.000728 30000000000 0.002053 0.001442 0.000610
214 1 0.000727 30000000000 0.006764 0.006300 0.004390
215 1 0.000725 30000000000 0.000743 0.002800 0.005756
216 1 0.000724 30000000000 0.006737 0.000694 0.000388
217 1 0.000721 30000000000 0.002829 0.005272 0.001279
218 1 0.000719 30000000000 0.001483 0.001285 0.005250
219 1 0.000719 30000000000 0.005474 0.005907 0.000176
220 1 0.000718 30000000000 0.003178 0.004827 0.001870
221 1 0.000715 30000000000 0.002121 0.003356 0.005198
222 1 0.000715 30000000000 0.006788 0.004607 0.006230
223 1 0.000713 30000000000 0.005371 0.004063 0.003636
224 1 0.000713 30000000000 0.001980 0.001565 0.004339
225 1 0.000712 30000000000 0.002998 0.003463 0.000985
226 1 0.000710 30000000000 0.004245 0.003250 0.000143
227 1 0.000709 30000000000 0.001858 0.004396 0.000429
228 1 0.000706 30000000000 0.004820 0.003072 0.005105
229 1 0.000704 30000000000 0.002969 0.002636 0.005504
230 1 0.000704 30000000000 0.005937 0.003684 0.003196
231 1 0.000703 30000000000 0.003666 0.000613 0.001202
232 1 0.000701 30000000000 0.000492 0.001107 0.000222
233 1 0.000699 30000000000 0.002975 0.005793 0.003510
234 1 0.000699 30000000000 0.006150 0.004947 0.003310
235 1 0.000697 30000000000 0.002638 0.002932 0.000048
236 1 0.000696 30000000000 0.006150 0.006245 0.005621
237 1 0.000693 30000000000 0.002881 0.000484 0.001508
238 1 0.000692 30000000000 0.003021 0.003168 0.003322
239 1 0.000691 30000000000 0.004929 0.005606 0.005196
240 1 0.000687 30000000000 0.002678 0.005601 0.006563
241 1 0.000686 30000000000 0.006635 0.005053 0.004143
242 1 0.000684 30000000000 0.005730 0.000182 0.005046
243 1 0.000682 30000000000 0.005612 0.003465 0.004073
244 1 0.000681 30000000000 0.000726 0.003422 0.004349
245 1 0.000679 30000000000 0.002220 0.004810 0.003338
246 1 0.000678 30000000000 0.000395 0.006803 0.004598
247 1 0.000678 30000000000 0.000205 0.001815 0.003023
248 1 0.000677 30000000000 0.000071 0.004902 0.002227
249 1 0.000677 30000000000 0.002952 0.002823 0.000704
250 1 0.000676 30000000000 0.001074 0.003870 0.003827
251 1 0.000676 30000000000 0.005933 0.003270 0.000879
252 1 0.000674 30000000000 0.001418 0.000245 0.001239
253 1 0.000673 30000000000 0.004992 0.005617 0.003391
254 1 0.000673 30000000000 0.004476 0.005002 0.005761
255 1 0.000672 30000000000 0.001946 0.005428 0.003434
256 1 0.000671 30000000000 0.005029 0.001885 0.002407
257 1 0.000669 30000000000 0.003543 0.005306 0.003341
258 1 0.000669 30000000000 0.005565 0.006213 0.001006
259 1 0.000667 30000000000 0.004953 0.001248 0.006386
260 1 0.000662 30000000000 0.002243 0.006506 0.003779
261 1 0.000661 30000000000 0.002301 0.005299 0.005982
262 1 0.000661 30000000000 0.004956 0.003694 0.006696
263 1 0.000661 30000000000 0.005762 0.002059 0.005518
264 1 0.000660 30000000000 0.001006 0.000759 0.000897
265 1 0.000659 30000000000 0.000995 0.001128 0.002148
266 1 0.000658 30000000000 0.001373 0.003299 0.003620
267 1 0.000658 30000000000 0.004246 0.003747 0.006464
268 1 0.000657 30000000000 0.006117 0.004458 0.000555
269 1 0.000656 30000000000 0.006049 0.001583 0.006024
270 1 0.000655 30000000000 0.000697 0.000955 0.002764
271 1 0.000655 30000000000 0.005608 0.005434 0.002566
272 1 0.000653 30000000000 0.005909 0.002240 0.006646
273 1 0.000652 30000000000 0.004549 0.000970 0.000040
274 1 0.000651 30000000000 0.004421 0.005756 0.001324
275 1 0.000651 30000000000 0.000232 0.005234 0.003468
276 1 0.000651 30000000000 0.006281 0.003307 0.002697
277 1 0.000651 30000000000 0.001652 0.003506 0.005683
278 1 0.000651 30000000000 0.004159 0.004554 0.003210
279 1 0.000651 30000000000 0.004383 0.004681 0.004144
280 1 0.000649 30000000000 0.001297 0.004800 0.000501
281 1 0.000648 30000000000 0.004185 0.005868 0.005411
282 1 0.000646 30000000000 0.000493 0.004243 0.004493
283 1 0.000645 30000000000 0.004016 0.004991 0.000060
284 1 0.000645 30000000000 0.004009 0.006018 0.000639
285 1 0.000643 30000000000 0.004378 0.001225 0.000691
286 1 0.000641 30000000000 0.002332 0.002686 0.005263
287 1 0.000639 30000000000 0.002885 0.002204 0.003940
288 1 0.000639 30000000000 0.004328 0.005215 0.003237
289 1 0.000638 30000000000 0.004362 0.002443 0.002786
290 1 0.000637 30000000000 0.004687 0.000073 0.005307
291 1 0.000636 30000000000 0.003290 0.004592 0.003126
292 1 0.000636 30000000000 0.000800 0.004786 0.005386
293 1 0.000632 30000000000 0.004025 0.001979 0.002164
294 1 0.000631 30000000000 0.004186 0.005735 0.001923
295 1 0.000630 30000000000 0.004399 0.004542 0.006277
296 1 0.000629 30000000000 0.003135 0.005711 0.001722
297 1 0.000629 30000000000 0.004315 0.000858 0.003910
298 1 0.000628 30000000000 0.002214 0.001106 0.005604
299 1 0.000627 30000000000 0.000476 0.000611 0.006596
300 1 0.000626 30000000000 0.000460 0.001208 0.003329
301 1 0.000625 30000000000 0.003788 0.000784 0.002667
302 1 0.000624 30000000000 0.000293 0.004896 0.002858
303 1 0.000623 30000000000 0.005752 0.003661 0.001774
304 1 0.000623 30000000000 0.001697 0.004120 0.005377
305 1 0.000623 30000000000 0.001496 0.000081 0.006224
306 1 0.000623 30000000000 0.002576 0.001534 0.001708
307 1 0.000622 30000000000 0.005068 0.002846 0.003123
308 1 0.000621 30000000000 0.005265 0.000003 0.000962
309 1 0.000620 30000000000 0.002343 0.002275 0.004343
310 1 0.000618 30000000000 0.004513 0.002276 0.003455
311 1 0.000617 30000000000 0.000701 0.003325 0.003485
312 1 0.000615 30000000000 0.002602 0.000928 0.001987
313 1 0.000615 30000000000 0.000015 0.006157 0.001814
314 1 0.000615 30000000000 0.002056 0.005369 0.000191
315 1 0.000615 30000000000 0.005131 0.003308 0.006216
316 1 0.000614 30000000000 0.001838 0.002842 0.006605
317 1 0.000613 30000000000 0.003972 0.000155 0.002323
318 1 0.000613 30000000000 0.006704 0.004717 0.005273
319 1 0.000611 30000000000 0.003415 0.000265 0.004804
320 1 0.000609 30000000000 0.003261 0.002937 0.002365
321 1 0.000609 30000000000 0.002566 0.006781 0.005515
322 1 0.000606 30000000000 0.001113 0.004096 0.006587
323 1 0.000606 30000000000 0.002926 0.004559 0.002498
324 1 0.000606 30000000000 0.006443 0.004657 0.002655
325 1 0.000605 30000000000 0.002768 0.001386 0.003663
326 1 0.000604 30000000000 0.005936 0.004247 0.001969
327 1 0.000604 30000000000 0.002191 0.003439 0.006750
328 1 0.000603 30000000000 0.005912 0.001960 0.003244
329 1 0.000602 30000000000 0.006543 0.001060 0.004953
330 1 0.000601 30000000000 0.005797 0.006790 0.005713
331 1 0.000601 30000000000 0.001170 0.005256 0.002690
332 1 0.000601 30000000000 0.004350 0.002696 0.006326
333 1 0.000601 30000000000 0.004750 0.005253 0.002730
334 1 0.000601 30000000000 0.004542 0.003075 0.002113
335 1 0.000600 30000000000 0.000901 0.002735 0.001589
336 1 0.000600 30000000000 0.003014 0.000377 0.005283
337 1 0.000600 30000000000 0.003380 0.003584 0.005477
338 1 0.000600 30000000000 0.001279 0.003415 0.005179
339 1 0.000600 30000000000 0.002076 0.006709 0.003191
340 1 0.000600 30000000000 0.003684 0.003871 0.006802
341 1 0.000599 30000000000 0.005462 0.001365 0.005420
342 1 0.000599 30000000000 0.001326 0.000820 0.002646
343 1 0.000598 30000000000 0.004663 0.000536 0.000492
344 1 0.000596 30000000000 0.006256 0.003358 0.005505
345 1 0.000596 30000000000 0.006412 0.004848 0.004757
346 1 0.000595 30000000000 0.005834 0.002512 0.004287
347 1 0.000595 30000000000 0.003522 0.001480 0.002715
348 1 0.000594 30000000000 0.006710 0.000444 0.006479
349 1 0.000593 30000000000 0.003922 0.004401 0.003803
350 1 0.000591 30000000000 0.004533 0.001599 0.001258
351 1 0.000591 30000000000 0.004113 0.006490 0.006684
352 1 0.000590 30000000000 0.006725 0.001347 0.000677
353 1 0.000590 30000000000 0.006430 0.002200 0.000742
354 1 0.000589 30000000000 0.003933 0.000736 0.000000
355 1 0.000588 30000000000 0.001629 0.005007 0.003954
356 1 0.000588 30000000000 0.004153 0.002592 0.002205
357 1 0.000586 30000000000 0.003478 0.004265 0.002449
358 1 0.000586 30000000000 0.000908 0.004612 0.004809
359 1 0.000584 30000000000 0.003990 0.005514 0.005899
360 1 0.000584 30000000000 0.003113 0.001841 0.004495
361 1 0.000582 30000000000 0.002985 0.001942 0.000438
362 1 0.000582 30000000000 0.006782 0.000009 0.002630
363 1 0.000581 30000000000 0.002455 0.001249 0.001150
364 1 0.000581 30000000000 0.001246 0.002331 0.003874
365 1 0.000579 30000000000 0.003687 0.002538 0.002569
366 1 0.000577 30000000000 0.003373 0.004244 0.005024
367 1 0.000577 30000000000 0.005159 0.000864 0.001007
368 1 0.000576 30000000000 0.000642 0.002243 0.003770
369 1 0.000576 30000000000 0.001967 0.005912 0.005936
370 1 0.000575 30000000000 0.003750 0.002037 0.002894
371 1 0.000575 30000000000 0.003740 0.004351 0.001877
372 1 0.000574 30000000000 0.000178 0.006742 0.003948
373 1 0.000573 30000000000 0.002068 0.000704 0.001624
374 1 0.000572 30000000000 0.006160 0.002834 0.003104
375 1 0.000571 30000000000 0.002609 0.001720 0.004188
376 1 0.000571 30000000000 0.005582 0.002365 0.001632
377 1 0.000569 30000000000 0.001560 0.006504 0.000991
378 1 0.000569 30000000000 0.005950 0.004019 0.004000
379 1 0.000565 30000000000 0.003061 0.003830 0.003485
380 1 0.000564 30000000000 0.002871 0.004911 0.005311
381 1 0.000563 30000000000 0.005305 0.000329 0.005779
382 1 0.000562 30000000000 0.004013 0.000756 0.000586
383 1 0.000562 30000000000 0.000504 0.001204 0.000867
384 1 0.000561 30000000000 0.002059 0.001638 0.001319
385 1 0.000561 30000000000 0.001862 0.004512 0.004141
386 1 0.000560 30000000000 0.001093 0.004520 0.004088
387 1 0.000560 30000000000 0.005262 0.000413 0.001504
388 1 0.000559 30000000000 0.001624 0.005662 0.000491
389 1 0.000557 30000000000 0.001137 0.001750 0.001915
390 1 0.000556 30000000000 0.000108 0.001058 0.004478
391 1 0.000556 30000000000 0.002294 0.004715 0.000027
392 1 0.000556 30000000000 0.005745 0.003676 0.005611
393 1 0.000556 30000000000 0.003234 0.001415 0.004109
394 1 0.000555 30000000000 0.000871 0.000813 0.005326
395 1 0.000555 30000000000 0.006176 0.002269 0.005039
396 1 0.000551 30000000000 0.002099 0.006024 0.003426
397 1 0.000551 30000000000 0.004113 0.006779 0.005078
398 1 0.000551 30000000000 0.006519 0.004249 0.004606
399 1 0.000550 30000000000 0.006425 0.006492 0.002919
400 1 0.000549 30000000000 0.000488 0.003385 0.006614
401 1 0.000547 30000000000 0.004628 0.003090 0.001520
402 1 0.000546 30000000000 0.002296 0.004303 0.002902
403 1 0.000546 30000000000 0.006532 0.000033 0.000416
404 1 0.000546 30000000000 0.006318 0.006558 0.003459
405 1 0.000545 30000000000 0.000924 0.001778 0.000139
406 1 0.000545 30000000000 0.002049 0.005970 0.004986
407 1 0.000544 30000000000 0.000630 0.002229 0.000344
408 1 0.000543 30000000000 0.001011 0.006241 0.001325
409 1 0.000543 30000000000 0.004809 0.006600 0.004715
410 1 0.000542 30000000000 0.000803 0.002733 0.003490
411 1 0.000542 30000000000 0.001744 0.006423 0.005701
412 1 0.000541 30000000000 0.003945 0.001451 0.001101
413 1 0.000541 30000000000 0.000841 0.005917 0.006817
414 1 0.000539 30000000000 0.002960 0.002349 0.001746
415 1 0.000539 30000000000 0.004117 0.005347 0.000669
416 1 0.000539 30000000000 0.000557 0.004307 0.002711
417 1 0.000539 30000000000 0.002718 0.001883 0.001102
418 1 0.000538 30000000000 0.005380 0.005678 0.000777
419 1 0.000538 30000000000 0.004807 0.001085 0.001428
420 1 0.000537 30000000000 0.001139 0.000515 0.006000
421 1 0.000537 30000000000 0.003847 0.004693 0.004698
422 1 0.000537 30000000000 0.001906 0.002136 0.003519
423 1 0.000536 30000000000 0.005724 0.002698 0.001209
424 1 0.000536 30000000000 0.001272 0.006037 0.001788
425 1 0.000535 30000000000 0.002059 0.003701 0.004408
426 1 0.000534 30000000000 0.005614 0.001169 0.005963
427 1 0.000534 30000000000 0.000718 0.005275 0.003090
428 1 0.000534 30000000000 0.004677 0.004676 0.002706
429 1 0.000534 30000000000 0.004938 0.001063 0.000487
430 1 0.000533 30000000000 0.005813 0.006360 0.000453
431 1 0.000533 30000000000 0.006728 0.006803 0.001699
432 1 0.000532 30000000000 0.005517 0.003251 0.003471
433 1 0.000532 30000000000 0.004777 0.006218 0.005098
434 1 0.000531 30000000000 0.004400 0.000114 0.004141
435 1 0.000531 30000000000 0.006099 0.005003 0.000946
436 1 0.000531 30000000000 0.005663 0.001593 0.006478
437 1 0.000530 30000000000 0.001823 0.006089 0.001881
438 1 0.000529 30000000000 0.002313 0.000051 0.001377
439 1 0.000529 30000000000 0.006368 0.001511 0.005374
440 1 0.000529 30000000000 0.003176 0.006178 0.002172
441 1 0.000528 30000000000 0.005697 0.005575 0.004969
442 1 0.000528 30000000000 0.005334 0.003278 0.004614
443 1 0.000527 30000000000 0.000777 0.000937 0.004570
444 1 0.000526 30000000000 0.004074 0.003365 0.001546
445 1 0.000526 30000000000 0.004104 0.005247 0.005323
446 1 0.000526 30000000000 0.002018 0.002927 0.005812
447 1 0.000526 30000000000 0.005069 0.001561 0.004839
448 1 0.000525 30000000000 0.006236 0.006673 0.006103
449 1 0.000525 30000000000 0.004900 0.005471 0.000990
450 1 0.000523 30000000000 0.001404 0.002251 0.006010
451 1 0.000523 30000000000 0.004094 0.003182 0.006144
452 1 0.000523 30000000000 0.002771 0.005402 0.005627
453 1 0.000523 30000000000 0.003877 0.006176 0.006166
454 1 0.000522 30000000000 0.004529 0.001589 0.000220
455 1 0.000521 30000000000 0.005134 0.005232 0.005703
456 1 0.000520 30000000000 0.000347 0.000942 0.001931
457 1 0.000520 30000000000 0.000413 0.006036 0.001406
458 1 0.000519 30000000000 0.004683 0.000303 0.005967
459 1 0.000517 30000000000 0.003627 0.005546 0.006426
460 1 0.000516 30000000000 0.003577 0.000901 0.005102
461 1 0.000516 30000000000 0.004322 0.004881 0.004836
462 1 0.000515 30000000000 0.004960 0.004635 0.005837
463 1 0.000515 30000000000 0.004417 0.002636 0.004753
464 1 0.000515 30000000000 0.005174 0.004273 0.006749
465 1 0.000514 30000000000 0.000826 0.003861 0.001468
466 1 0.000514 30000000000 0.003628 0.003328 0.001090
467 1 0.000514 30000000000 0.001283 0.006008 0.005211
468 1 0.000514 30000000000 0.004710 0.004174 0.002990
469 1 0.000513 30000000000 0.004205 0.003114 0.004731
470 1 0.000513 30000000000 0.005865 0.002586 0.000301
471 1 0.000513 30000000000 0.003750 0.003306 0.000567
472 1 0.000513 30000000000 0.000796 0.002431 0.002080
473 1 0.000513 30000000000 0.002210 0.001734 0.003761
474 1 0.000513 30000000000 0.001297 0.005429 0.001830
475 1 0.000512 30000000000 0.000732 0.003305 0.001559
476 1 0.000512 30000000000 0.003946 0.002687 0.004336
477 1 0.000512 30000000000 0.002996 0.006708 0.001067
478 1 0.000511 30000000000 0.004662 0.006232 0.001808
479 1 0.000510 30000000000 0.002535 0.003128 0.002840
480 1 0.000510 30000000000 0.001442 0.001316 0.004587
481 1 0.000509 30000000000 0.002163 0.004225 0.004555
482 1 0.000508 30000000000 0.001278 0.004279 0.005835
483 1 0.000508 30000000000 0.005565 0.005237 0.003162
484 1 0.000508 30000000000 0.001127 0.005099 0.004182
485 1 0.000507 30000000000 0.003515 0.004172 0.003457
486 1 0.000506 30000000000 0.001079 0.004278 0.001158
487 1 0.000506 30000000000 0.003654 0.000095 0.006802
488 1 0.000506 30000000000 0.006379 0.006566 0.006606
489 1 0.000504 30000000000 0.000284 0.002309 0.003338
490 1 0.000504 30000000000 0.005818 0.002006 0.003908
491 1 0.000502 30000000000 0.002550 0.003369 0.000553
492 1 0.000502 30000000000 0.001424 0.002325 0.001765
493 1 0.000502 30000000000 0.001101 0.000504 0.006581
494 1 0.000501 30000000000 0.000765 0.001264 0.006526
495 1 0.000501 30000000000 0.001863 0.003324 0.006318
496 1 0.000501 30000000000 0.000536 0.001713 0.003596
497 1 0.000501 30000000000 0.001737 0.002581 0.001175

Velocities

1 0 0 0 0 0 0
2 0 0 0 0 0 0
3 0 0 0 0 0 0
4 0 0 0 0 0 0
5 0 0 0 0 0 0
6 0 0 0 0 0 0
7 0 0 0 0 0 0
8 0 0 0 0 0 0
9 0 0 0 0 0 0
10 0 0 0 0 0 0
11 0 0 0 0 0 0
12 0 0 0 0 0 0
13 0 0 0 0 0 0
14 0 0 0 0 0 0
15 0 0 0 0 0 0
16 0 0 0 0 0 0
17 0 0 0 0 0 0
18 0 0 0 0 0 0
19 0 0 0 0 0 0
20 0 0 0 0 0 0
21 0 0 0 0 0 0
22 0 0 0 0 0 0
23 0 0 0 0 0 0
24 0 0 0 0 0 0
25 0 0 0 0 0 0
26 0 0 0 0 0 0
27 0 0 0 0 0 0
28 0 0 0 0 0 0
29 0 0 0 0 0 0
30 0 0 0 0 0 0
31 0 0 0 0 0 0
32 0 0 0 0 0 0
33 0 0 0 0 0 0
34 0 0 0 0 0 0
35 0 0 0 0 0 0
36 0 0 0 0 0 0
37 0 0 0 0 0 0
38 0 0 0 0 0 0
39 0 0 0 0 0 0
40 0 0 0 0 0 0
41 0 0 0 0 0 0
42 0 0 0 0 0 0
43 0 0 0 0 0 0
44 0 0 0 0 0 0
45 0 0 0 0 0 0
46 0 0 0 0 0 0
47 0 0 0 0 0 0
48 0 0 0 0 0 0
49 0 0 0 0 0 0
50 0 0 0 0 0 0
51 0 0 0 0 0 0
52 0 0 0 0 0 0
53 0 0 0 0 0 0
54 0 0 0 0 0 0
55 0 0 0 0 0 0
56 0 0 0 0 0 0
57 0 0 0 0 0 0
58 0 0 0 0 0 0
59 0 0 0 0 0 0
60 0 0 0 0 0 0
61 0 0 0 0 0 0
62 0 0 0 0 0 0
63 0 0 0 0 0 0
64 0 0 0 0 0 0
65 0 0 0 0 0 0
66 0 0 0 0 0 0
67 0 0 0 0 0 0
68 0 0 0 0 0 0
69 0 0 0 0 0 0
70 0 0 0 0 0 0
71 0 0 0 0 0 0
72 0 0 0 0 0 0
73 0 0 0 0 0 0
74 0 0 0 0 0 0
75 0 0 0 0 0 0
76 0 0 0 0 0 0
77 0 0 0 0 0 0
78 0 0 0 0 0 0
79 0 0 0 0 0 0
80 0 0 0 0 0 0
81 0 0 0 0 0 0
82 0 0 0 0 0 0
83 0 0 0 0 0 0
84 0 0 0 0 0 0
85 0 0 0 0 0 0
86 0 0 0 0 0 0
87 0 0 0 0 0 0
88 0 0 0 0 0 0
89 0 0 0 0 0 0
90 0 0 0 0 0 0
91 0 0 0 0 0 0
92 0 0 0 0 0 0
93 0 0 0 0 0 0
94 0 0 0 0 0 0
95 0 0 0 0 0 0
96 0 0 0 0 0 0
97 0 0 0 0 0 0
98 0 0 0 0 0 0
99 0 0 0 0 0 0
100 0 0 0 0 0 0
101 0 0 0 0 0 0
102 0 0 0 0 0 0
103 0 0 0 0 0 0
104 0 0 0 0 0 0
105 0 0 0 0 0 0
106 0 0 0 0 0 0
107 0 0 0 0 0 0
108 0 0 0 0 0 0
109 0 0 0 0 0 0
110 0 0 0 0 0 0
111 0 0 0 0 0 0
112 0 0 0 0 0 0
113 0 0 0 0 0 0
114 0 0 0 0 0 0
115 0 0 0 0 0 0
116 0 0 0 0 0 0
117 0 0 0 0 0 0
118 0 0 0 0 0 0
119 0 0 0 0 0 0
120 0 0 0 0 0 0
121 0 0 0 0 0 0
122 0 0 0 0 0 0
123 0 0 0 0 0 0
124 0 0 0 0 0 0
125 0 0 0 0 0 0
126 0 0 0 0 0 0
127 0 0 0 0 0 0
128 0 0 0 0 0 0
129 0 0 0 0 0 0
130 0 0 0 0 0 0
131 0 0 0 0 0 0
132 0 0 0 0 0 0
133 0 0 0 0 0 0
134 0 0 0 0 0 0
135 0 0 0 0 0 0
136 0 0 0 0 0 0
137 0 0 0 0 0 0
138 0 0 0 0 0 0
139 0 0 0 0 0 0
140 0 0 0 0 0 0
141 0 0 0 0 0 0
142 0 0 0 0 0 0
143 0 0 0 0 0 0
144 0 0 0 0 0 0
145 0 0 0 0 0 0
146 0 0 0 0 0 0
147 0 0 0 0 0 0
148 0 0 0 0 0 0
149 0 0 0 0 0 0
150 0 0 0 0 0 0
151 0 0 0 0 0 0
152 0 0 0 0 0 0
153 0 0 0 0 0 0
154 0 0 0 0 0 0
155 0 0 0 0 0 0
156 0 0 0 0 0 0
157 0 0 0 0 0 0
158 0 0 0 0 0 0
159 0 0 0 0 0 0
160 0 0 0 0 0 0
161 0 0 0 0 0 0
162 0 0 0 0 0 0
163 0 0 0 0 0 0
164 0 0 0 0 0 0
165 0 0 0 0 0 0
166 0 0 0 0 0 0
167 0 0 0 0 0 0
168 0 0 0 0 0 0
169 0 0 0 0 0 0
170 0 0 0 0 0 0
171 0 0 0 0 0 0
172 0 0 0 0 0 0
173 0 0 0 0 0 0
174 0 0 0 0 0 0
175 0 0 0 0 0 0
176 0 0 0 0 0 0
177 0 0 0 0 0 0
178 0 0 0 0 0 0
179 0 0 0 0 0 0
180 0 0 0 0 0 0
181 0 0 0 0 0 0
182 0 0 0 0 0 0
183 0 0 0 0 0 0
184 0 0 0 0 0 0
185 0 0 0 0 0 0
186 0 0 0 0 0 0
187 0 0 0 0 0 0
188 0 0 0 0 0 0
189 0 0 0 0 0 0
190 0 0 0 0 0 0
191 0 0 0 0 0 0
192 0 0 0 0 0 0
193 0 0 0 0 0 0
194 0 0 0 0 0 0
195 0 0 0 0 0 0
196 0 0 0 0 0 0
197 0 0 0 0 0 0
198 0 0 0 0 0 0