# Coordinates of a bcc lattice for 497 spheres of diameter 30000000000.000000
1 atom types
497 atoms
#porosity is xxx
0.000000 0.010095 xlo xhi
0.000000 0.006425 ylo yhi
0.000000 0.006436 zlo zhi

Atoms

1 1 0.001745 30000000000 0.00337448 0.00018600 0.00433200
2 1 0.001718 30000000000 0.00302448 0.00316100 0.00231700
3 1 0.001718 30000000000 0.00513948 0.00039900 0.00349600
4 1 0.001664 30000000000 0.00228748 0.00588700 0.00542600
5 1 0.001663 30000000000 0.00592348 0.00539300 0.00399800
6 1 0.001656 30000000000 0.00701148 0.00425200 0.00451400
7 1 0.001613 30000000000 0.00288048 0.00314600 0.00065800
8 1 0.001609 30000000000 0.00250048 0.00159000 0.00462900
9 1 0.001586 30000000000 0.00478848 0.00273500 0.00401600
10 1 0.001573 30000000000 0.00784948 0.00330400 0.00629600
11 1 0.001573 30000000000 0.00812348 0.00563600 0.00047700
12 1 0.001570 30000000000 0.00719748 0.00048300 0.00017900
13 1 0.001549 30000000000 0.00775048 0.00089200 0.00258900
14 1 0.001531 30000000000 0.00464448 0.00044800 0.00027000
15 1 0.001528 30000000000 0.00724948 0.00605400 0.00182100
16 1 0.001524 30000000000 0.00799748 0.00279000 0.00144900
17 1 0.001524 30000000000 0.00404448 0.00160800 0.00591400
18 1 0.001490 30000000000 0.00429148 0.00213000 0.00265100
19 1 0.001472 30000000000 0.00484448 0.00425900 0.00391000
20 1 0.001465 30000000000 0.00613848 0.00383700 0.00157400
21 1 0.001464 30000000000 0.00302948 0.00459700 0.00590800
22 1 0.001454 30000000000 0.00549948 0.00350000 0.00284500
23 1 0.001453 30000000000 0.00663548 0.00003600 0.00311600
24 1 0.001449 30000000000 0.00811748 0.00397400 0.00346100
25 1 0.001446 30000000000 0.00485248 0.00443500 0.00080700
26 1 0.001433 30000000000 0.00251348 0.00018000 0.00200800
27 1 0.001433 30000000000 0.00363548 0.00473800 0.00228800
28 1 0.001429 30000000000 0.00690348 0.00177700 0.00087500
29 1 0.001428 30000000000 0.00584648 0.00166700 0.00411200
30 1 0.001418 30000000000 0.00486548 0.00414600 0.00584000
31 1 0.001410 30000000000 0.00230948 0.00361200 0.00511900
32 1 0.001379 30000000000 0.00382348 0.00479800 0.00474700
33 1 0.001356 30000000000 0.00777748 0.00029300 0.00391200
34 1 0.001356 30000000000 0.00734548 0.00531300 0.00349900
35 1 0.001351 30000000000 0.00662648 0.00609100 0.00552600
36 1 0.001310 30000000000 0.00270748 0.00525000 0.00415000
37 1 0.001303 30000000000 0.00796548 0.00203500 0.00563000
38 1 0.001265 30000000000 0.00624148 0.00135900 0.00285700
39 1 0.001258 30000000000 0.00382048 0.00089100 0.00301400
40 1 0.001256 30000000000 0.00661748 0.00057700 0.00446100
41 1 0.001255 30000000000 0.00299548 0.00183800 0.00299400
42 1 0.001251 30000000000 0.00538148 0.00636100 0.00150700
43 1 0.001247 30000000000 0.00187148 0.00267400 0.00382500
44 1 0.001242 30000000000 0.00310248 0.00285700 0.00437200
45 1 0.001239 30000000000 0.00561848 0.00573300 0.00262000
46 1 0.001232 30000000000 0.00746648 0.00511100 0.00558200
47 1 0.001225 30000000000 0.00628148 0.00302800 0.00382400
48 1 0.001212 30000000000 0.00549048 0.00263700 0.00522200
49 1 0.001212 30000000000 0.00295048 0.00175600 0.00089600
50 1 0.001199 30000000000 0.00426048 0.00558100 0.00051500
51 1 0.001197 30000000000 0.00215548 0.00432900 0.00043800
52 1 0.001191 30000000000 0.00692048 0.00300000 0.00224700
53 1 0.001184 30000000000 0.00453448 0.00567300 0.00413800
54 1 0.001176 30000000000 0.00267448 0.00430500 0.00150400
55 1 0.001171 30000000000 0.00518548 0.00220200 0.00631600
56 1 0.001170 30000000000 0.00423748 0.00607000 0.00570000
57 1 0.001170 30000000000 0.00194648 0.00078900 0.00578500
58 1 0.001148 30000000000 0.00345048 0.00596200 0.00265000
59 1 0.001141 30000000000 0.00653748 0.00466200 0.00634900
60 1 0.001141 30000000000 0.00813648 0.00390200 0.00216900
61 1 0.001138 30000000000 0.00294548 0.00423900 0.00325000
62 1 0.001135 30000000000 0.00558348 0.00107100 0.00181300
63 1 0.001130 30000000000 0.00535248 0.00480400 0.00193500
64 1 0.001118 30000000000 0.00255148 0.00030800 0.00054100
65 1 0.001113 30000000000 0.00704148 0.00413000 0.00244500
66 1 0.001111 30000000000 0.00460248 0.00078900 0.00474500
67 1 0.001111 30000000000 0.00381948 0.00035100 0.00196000
68 1 0.001110 30000000000 0.00634348 0.00340800 0.00538300
69 1 0.001108 30000000000 0.00816448 0.00546400 0.00256300
70 1 0.001107 30000000000 0.00741648 0.00143300 0.00473400
71 1 0.001104 30000000000 0.00789648 0.00153000 0.00374300
72 1 0.001089 30000000000 0.00526048 0.00033500 0.00555500
73 1 0.001089 30000000000 0.00560548 0.00116200 0.00617400
74 1 0.001086 30000000000 0.00345348 0.00138500 0.00201700
75 1 0.001086 30000000000 0.00392748 0.00382300 0.00147300
76 1 0.001086 30000000000 0.00292648 0.00578800 0.00096600
77 1 0.001084 30000000000 0.00643848 0.00518800 0.00127900
78 1 0.001081 30000000000 0.00657048 0.00361000 0.00037500
79 1 0.001080 30000000000 0.00261048 0.00535700 0.00190800
80 1 0.001078 30000000000 0.00380348 0.00360800 0.00356700
81 1 0.001074 30000000000 0.00425948 0.00365800 0.00486700
82 1 0.001066 30000000000 0.00551048 0.00225200 0.00301500
83 1 0.001065 30000000000 0.00453448 0.00609600 0.00247600
84 1 0.001062 30000000000 0.00373448 0.00355200 0.00599000
85 1 0.001062 30000000000 0.00515248 0.00580900 0.00506500
86 1 0.001059 30000000000 0.00516548 0.00155000 0.00527400
87 1 0.001057 30000000000 0.00444048 0.00288100 0.00557400
88 1 0.001057 30000000000 0.00627948 0.00200300 0.00626100
89 1 0.001056 30000000000 0.00365848 0.00474800 0.00100600
90 1 0.001043 30000000000 0.00660848 0.00073400 0.00195900
91 1 0.001040 30000000000 0.00563548 0.00355800 0.00458800
92 1 0.001020 30000000000 0.00511948 0.00577100 0.00627500
93 1 0.001019 30000000000 0.00510848 0.00149600 0.00082800
94 1 0.001016 30000000000 0.00815948 0.00291800 0.00270200
95 1 0.001011 30000000000 0.00342948 0.00091600 0.00034400
96 1 0.001007 30000000000 0.00493148 0.00361000 0.00171000
97 1 0.001005 30000000000 0.00371048 0.00227900 0.00153900
98 1 0.001001 30000000000 0.00618948 0.00234000 0.00168200
99 1 0.000999 30000000000 0.00194448 0.00096000 0.00119800
100 1 0.000995 30000000000 0.00354448 0.00045200 0.00589800
101 1 0.000994 30000000000 0.00350048 0.00634100 0.00029800
102 1 0.000993 30000000000 0.00312748 0.00396800 0.00426300
103 1 0.000975 30000000000 0.00686948 0.00225500 0.00434000
104 1 0.000969 30000000000 0.00617748 0.00179200 0.00527500
105 1 0.000969 30000000000 0.00387848 0.00221400 0.00055400
106 1 0.000962 30000000000 0.00196348 0.00581900 0.00350900
107 1 0.000960 30000000000 0.00648848 0.00587000 0.00031100
108 1 0.000956 30000000000 0.00742448 0.00078400 0.00138400
109 1 0.000950 30000000000 0.00225148 0.00091900 0.00347000
110 1 0.000939 30000000000 0.00807948 0.00454800 0.00135600
111 1 0.000937 30000000000 0.00759648 0.00384600 0.00096300
112 1 0.000935 30000000000 0.00565848 0.00230100 0.00087300
113 1 0.000934 30000000000 0.00191648 0.00193400 0.00226100
114 1 0.000929 30000000000 0.00378048 0.00139400 0.00473600
115 1 0.000924 30000000000 0.00647148 0.00477600 0.00300200
116 1 0.000922 30000000000 0.00701348 0.00106500 0.00357200
117 1 0.000920 30000000000 0.00364948 0.00554400 0.00358400
118 1 0.000920 30000000000 0.00718648 0.00066300 0.00538300
119 1 0.000912 30000000000 0.00288848 0.00034500 0.00310700
120 1 0.000909 30000000000 0.00401348 0.00367300 0.00049100
121 1 0.000905 30000000000 0.00735748 0.00280300 0.00512300
122 1 0.000900 30000000000 0.00349148 0.00145600 0.00387100
123 1 0.000900 30000000000 0.00429148 0.00378000 0.00239600
124 1 0.000897 30000000000 0.00779948 0.00160500 0.00159600
125 1 0.000896 30000000000 0.00434948 0.00590600 0.00153200
126 1 0.000895 30000000000 0.00572548 0.00636600 0.00048600
127 1 0.000894 30000000000 0.00754248 0.00489700 0.00202200
128 1 0.000885 30000000000 0.00289448 0.00112300 0.00599800
129 1 0.000884 30000000000 0.00744848 0.00210800 0.00227400
130 1 0.000878 30000000000 0.00634348 0.00401400 0.00346400
131 1 0.000873 30000000000 0.00355648 0.00268000 0.00339600
132 1 0.000871 30000000000 0.00652548 0.00114200 0.00583800
133 1 0.000867 30000000000 0.00585648 0.00425500 0.00520100
134 1 0.000866 30000000000 0.00336248 0.00570200 0.00606700
135 1 0.000866 30000000000 0.00702548 0.00402000 0.00575300
136 1 0.000863 30000000000 0.00653848 0.00285900 0.00099100
137 1 0.000862 30000000000 0.00781448 0.00328200 0.00453900
138 1 0.000858 30000000000 0.00235948 0.00254700 0.00611700
139 1 0.000853 30000000000 0.00588748 0.00094200 0.00512900
140 1 0.000850 30000000000 0.00685848 0.00270300 0.00021200
141 1 0.000850 30000000000 0.00476248 0.00244100 0.00076600
142 1 0.000849 30000000000 0.00404348 0.00297400 0.00102300
143 1 0.000846 30000000000 0.00697548 0.00549200 0.00467400
144 1 0.000844 30000000000 0.00570448 0.00398700 0.00018800
145 1 0.000842 30000000000 0.00508548 0.00488300 0.00485400
146 1 0.000840 30000000000 0.00462348 0.00211800 0.00153400
147 1 0.000840 30000000000 0.00485748 0.00052200 0.00219600
148 1 0.000838 30000000000 0.00598048 0.00545100 0.00613500
149 1 0.000838 30000000000 0.00506448 0.00272100 0.00191700
150 1 0.000838 30000000000 0.00298348 0.00521700 0.00311200
151 1 0.000836 30000000000 0.00789048 0.00030300 0.00500200
152 1 0.000835 30000000000 0.00695548 0.00250800 0.00583500
153 1 0.000832 30000000000 0.00302048 0.00294200 0.00576900
154 1 0.000829 30000000000 0.00458348 0.00516400 0.00545900
155 1 0.000828 30000000000 0.00281648 0.00194000 0.00575300
156 1 0.000825 30000000000 0.00813948 0.00504700 0.00469000
157 1 0.000825 30000000000 0.00597448 0.00457500 0.00071400
158 1 0.000823 30000000000 0.00690748 0.00346400 0.00314100
159 1 0.000820 30000000000 0.00419848 0.00298700 0.00184300
160 1 0.000818 30000000000 0.00770348 0.00156400 0.00011600
161 1 0.000818 30000000000 0.00737448 0.00504500 0.00119600
162 1 0.000817 30000000000 0.00400348 0.00442700 0.00005800
163 1 0.000816 30000000000 0.00537648 0.00512600 0.00567400
164 1 0.000813 30000000000 0.00635948 0.00480000 0.00214100
165 1 0.000811 30000000000 0.00690848 0.00225200 0.00291100
166 1 0.000808 30000000000 0.00774648 0.00448900 0.00634000
167 1 0.000806 30000000000 0.00195748 0.00240000 0.00042000
168 1 0.000802 30000000000 0.00676448 0.00441400 0.00082400
169 1 0.000802 30000000000 0.00573848 0.00328200 0.00067000
170 1 0.000800 30000000000 0.00318248 0.00217400 0.00001100
171 1 0.000798 30000000000 0.00609448 0.00062600 0.00112300
172 1 0.000798 30000000000 0.00715148 0.00434000 0.00152000
173 1 0.000795 30000000000 0.00282048 0.00596800 0.00338900
174 1 0.000794 30000000000 0.00789548 0.00209900 0.00298400
175 1 0.000792 30000000000 0.00780848 0.00416200 0.00548200
176 1 0.000791 30000000000 0.00736148 0.00236400 0.00356200
177 1 0.000791 30000000000 0.00523148 0.00143200 0.00268400
178 1 0.000787 30000000000 0.00375048 0.00039600 0.00100500
179 1 0.000783 30000000000 0.00800648 0.00182000 0.00081100
180 1 0.000783 30000000000 0.00693648 0.00609400 0.00412700
181 1 0.000781 30000000000 0.00760948 0.00604200 0.00593600
182 1 0.000780 30000000000 0.00815048 0.00536200 0.00162100
183 1 0.000778 30000000000 0.00194448 0.00471600 0.00538200
184 1 0.000777 30000000000 0.00206448 0.00015800 0.00310700
185 1 0.000775 30000000000 0.00206648 0.00172000 0.00003400
186 1 0.000772 30000000000 0.00194248 0.00261500 0.00486900
187 1 0.000772 30000000000 0.00220148 0.00044100 0.00470700
188 1 0.000768 30000000000 0.00522248 0.00296900 0.00117000
189 1 0.000767 30000000000 0.00434148 0.00112400 0.00206400
190 1 0.000766 30000000000 0.00497948 0.00541200 0.00131000
191 1 0.000766 30000000000 0.00610948 0.00027500 0.00624600
192 1 0.000765 30000000000 0.00797248 0.00017500 0.00112000
193 1 0.000762 30000000000 0.00618948 0.00637500 0.00210700
194 1 0.000762 30000000000 0.00457548 0.00169800 0.00452300
195 1 0.000761 30000000000 0.00519048 0.00312300 0.00602600
196 1 0.000761 30000000000 0.00656548 0.00254500 0.00509900
197 1 0.000760 30000000000 0.00324748 0.00231200 0.00519900
198 1 0.000759 30000000000 0.00451048 0.00327600 0.00638900
199 1 0.000758 30000000000 0.00362648 0.00550400 0.00150500
200 1 0.000751 30000000000 0.00677348 0.00186600 0.00357600
201 1 0.000742 30000000000 0.00417948 0.00539500 0.00296200
202 1 0.000740 30000000000 0.00728748 0.00483900 0.00045100
203 1 0.000738 30000000000 0.00548148 0.00043100 0.00467400
204 1 0.000736 30000000000 0.00480848 0.00516900 0.00264600
205 1 0.000735 30000000000 0.00705348 0.00150200 0.00191100
206 1 0.000733 30000000000 0.00540248 0.00197600 0.00162900
207 1 0.000731 30000000000 0.00275848 0.00595400 0.00008900
208 1 0.000730 30000000000 0.00215048 0.00181200 0.00144600
209 1 0.000729 30000000000 0.00517548 0.00581200 0.00071000
210 1 0.000729 30000000000 0.00266548 0.00117700 0.00162000
211 1 0.000728 30000000000 0.00559848 0.00521500 0.00094100
212 1 0.000728 30000000000 0.00438748 0.00057800 0.00561400
213 1 0.000728 30000000000 0.00413348 0.00140500 0.00058200
214 1 0.000727 30000000000 0.00821548 0.00573000 0.00433000
215 1 0.000725 30000000000 0.00252648 0.00252600 0.00533100
216 1 0.000724 30000000000 0.00825448 0.00104300 0.00025300
217 1 0.000721 30000000000 0.00432248 0.00510000 0.00147800
218 1 0.000719 30000000000 0.00322648 0.00096000 0.00528600
219 1 0.000719 30000000000 0.00710748 0.00539000 0.00000900
220 1 0.000718 30000000000 0.00454248 0.00437100 0.00184100
221 1 0.000715 30000000000 0.00397048 0.00281200 0.00482200
222 1 0.000715 30000000000 0.00200848 0.00422000 0.00593600
223 1 0.000713 30000000000 0.00710148 0.00432100 0.00333500
224 1 0.000713 30000000000 0.00419948 0.00104900 0.00396800
225 1 0.000712 30000000000 0.00469348 0.00335200 0.00080500
226 1 0.000710 30000000000 0.00608348 0.00271700 0.00030500
227 1 0.000709 30000000000 0.00337748 0.00416500 0.00040600
228 1 0.000706 30000000000 0.00677948 0.00310100 0.00464800
229 1 0.000704 30000000000 0.00464948 0.00222200 0.00503000
230 1 0.000704 30000000000 0.00750548 0.00308800 0.00342900
231 1 0.000703 30000000000 0.00486348 0.00081900 0.00130000
232 1 0.000701 30000000000 0.00253048 0.00117300 0.00026400
233 1 0.000699 30000000000 0.00487148 0.00555600 0.00324700
234 1 0.000699 30000000000 0.00773048 0.00469900 0.00277000
235 1 0.000697 30000000000 0.00433048 0.00257000 0.00638800
236 1 0.000696 30000000000 0.00771148 0.00566000 0.00482800
237 1 0.000693 30000000000 0.00447348 0.00024300 0.00134900
238 1 0.000692 30000000000 0.00435048 0.00314400 0.00304800
239 1 0.000691 30000000000 0.00658248 0.00509800 0.00520400
240 1 0.000687 30000000000 0.00457848 0.00508800 0.00621300
241 1 0.000686 30000000000 0.00188548 0.00500900 0.00363800
242 1 0.000684 30000000000 0.00728148 0.00634700 0.00472300
243 1 0.000682 30000000000 0.00733548 0.00288700 0.00408000
244 1 0.000681 30000000000 0.00242348 0.00343900 0.00402200
245 1 0.000679 30000000000 0.00413948 0.00426000 0.00308300
246 1 0.000678 30000000000 0.00220848 0.00629200 0.00426500
247 1 0.000678 30000000000 0.00205048 0.00163200 0.00299600
248 1 0.000677 30000000000 0.00198148 0.00476400 0.00206400
249 1 0.000677 30000000000 0.00512748 0.00299000 0.00037400
250 1 0.000676 30000000000 0.00295148 0.00340100 0.00359800
251 1 0.000676 30000000000 0.00721148 0.00316300 0.00077600
252 1 0.000674 30000000000 0.00359948 0.00108300 0.00120300
253 1 0.000673 30000000000 0.00655848 0.00557700 0.00253200
254 1 0.000673 30000000000 0.00607348 0.00487600 0.00560000
255 1 0.000672 30000000000 0.00384448 0.00482100 0.00331600
256 1 0.000671 30000000000 0.00667748 0.00198400 0.00226000
257 1 0.000669 30000000000 0.00520448 0.00496200 0.00318700
258 1 0.000669 30000000000 0.00706048 0.00561000 0.00083000
259 1 0.000667 30000000000 0.00632348 0.00117600 0.00024300
260 1 0.000662 30000000000 0.00430848 0.00599500 0.00330300
261 1 0.000661 30000000000 0.00406848 0.00481300 0.00586800
262 1 0.000661 30000000000 0.00616048 0.00313800 0.00620600
263 1 0.000661 30000000000 0.00706248 0.00205800 0.00524700
264 1 0.000660 30000000000 0.00298448 0.00084400 0.00110200
265 1 0.000659 30000000000 0.00254248 0.00144300 0.00224900
266 1 0.000658 30000000000 0.00279948 0.00276300 0.00347500
267 1 0.000658 30000000000 0.00572648 0.00358600 0.00599000
268 1 0.000657 30000000000 0.00724448 0.00415500 0.00031900
269 1 0.000656 30000000000 0.00727248 0.00130100 0.00586400
270 1 0.000655 30000000000 0.00242148 0.00096800 0.00268700
271 1 0.000655 30000000000 0.00703348 0.00511500 0.00256400
272 1 0.000653 30000000000 0.00716148 0.00187300 0.00616300
273 1 0.000652 30000000000 0.00594948 0.00124900 0.00078100
274 1 0.000651 30000000000 0.00624748 0.00603100 0.00121200
275 1 0.000651 30000000000 0.00232348 0.00487500 0.00315100
276 1 0.000651 30000000000 0.00753348 0.00346600 0.00275200
277 1 0.000651 30000000000 0.00355748 0.00310100 0.00528400
278 1 0.000651 30000000000 0.00571248 0.00441900 0.00331700
279 1 0.000651 30000000000 0.00591548 0.00424700 0.00415300
280 1 0.000649 30000000000 0.00248848 0.00502800 0.00097600
281 1 0.000648 30000000000 0.00593648 0.00547400 0.00515000
282 1 0.000646 30000000000 0.00204248 0.00454100 0.00427000
283 1 0.000645 30000000000 0.00555948 0.00498500 0.00026800
284 1 0.000645 30000000000 0.00573948 0.00559300 0.00038500
285 1 0.000643 30000000000 0.00593648 0.00167600 0.00126700
286 1 0.000641 30000000000 0.00402548 0.00213700 0.00479200
287 1 0.000639 30000000000 0.00501248 0.00177000 0.00351100
288 1 0.000639 30000000000 0.00571648 0.00481800 0.00280500
289 1 0.000638 30000000000 0.00619448 0.00234900 0.00250900
290 1 0.000637 30000000000 0.00580648 0.00634900 0.00502800
291 1 0.000636 30000000000 0.00517448 0.00448800 0.00273900
292 1 0.000636 30000000000 0.00253448 0.00484100 0.00501500
293 1 0.000632 30000000000 0.00577948 0.00184600 0.00218700
294 1 0.000631 30000000000 0.00578948 0.00553900 0.00171900
295 1 0.000630 30000000000 0.00589448 0.00420500 0.00594600
296 1 0.000629 30000000000 0.00444648 0.00534500 0.00209500
297 1 0.000629 30000000000 0.00622048 0.00083100 0.00364400
298 1 0.000628 30000000000 0.00387548 0.00079000 0.00522200
299 1 0.000627 30000000000 0.00269048 0.00038000 0.00609300
300 1 0.000626 30000000000 0.00225448 0.00185800 0.00357300
301 1 0.000625 30000000000 0.00598548 0.00053300 0.00247600
302 1 0.000624 30000000000 0.00271148 0.00430200 0.00240300
303 1 0.000623 30000000000 0.00703548 0.00329100 0.00139300
304 1 0.000623 30000000000 0.00359348 0.00398300 0.00528000
305 1 0.000623 30000000000 0.00338448 0.00622000 0.00545400
306 1 0.000623 30000000000 0.00415248 0.00155900 0.00155600
307 1 0.000622 30000000000 0.00633848 0.00281100 0.00292800
308 1 0.000621 30000000000 0.00639948 0.00007100 0.00080500
309 1 0.000620 30000000000 0.00393248 0.00211300 0.00370300
310 1 0.000618 30000000000 0.00630448 0.00227600 0.00329300
311 1 0.000617 30000000000 0.00240048 0.00323400 0.00330100
312 1 0.000615 30000000000 0.00475048 0.00140400 0.00158300
313 1 0.000615 30000000000 0.00184248 0.00603600 0.00148500
314 1 0.000615 30000000000 0.00360248 0.00503100 0.00022200
315 1 0.000615 30000000000 0.00678548 0.00316700 0.00608300
316 1 0.000614 30000000000 0.00369748 0.00260100 0.00622000
317 1 0.000613 30000000000 0.00547348 0.00019500 0.00239800
318 1 0.000613 30000000000 0.00808748 0.00435100 0.00486100
319 1 0.000611 30000000000 0.00484948 0.00641400 0.00454600
320 1 0.000609 30000000000 0.00466648 0.00312600 0.00236500
321 1 0.000609 30000000000 0.00395548 0.00576800 0.00491200
322 1 0.000606 30000000000 0.00290448 0.00358300 0.00607400
323 1 0.000606 30000000000 0.00447548 0.00480700 0.00310700
324 1 0.000606 30000000000 0.00211448 0.00453400 0.00266300
325 1 0.000605 30000000000 0.00455048 0.00138800 0.00334400
326 1 0.000604 30000000000 0.00737548 0.00362700 0.00177900
327 1 0.000604 30000000000 0.00388648 0.00297600 0.00022500
328 1 0.000603 30000000000 0.00729748 0.00169100 0.00315600
329 1 0.000602 30000000000 0.00806848 0.00089100 0.00463000
330 1 0.000601 30000000000 0.00757648 0.00613200 0.00525200
331 1 0.000601 30000000000 0.00261548 0.00487500 0.00259700
332 1 0.000601 30000000000 0.00625948 0.00261900 0.00570300
333 1 0.000601 30000000000 0.00589648 0.00435400 0.00243500
334 1 0.000601 30000000000 0.00603148 0.00297900 0.00213800
335 1 0.000600 30000000000 0.00248548 0.00231900 0.00172600
336 1 0.000600 30000000000 0.00435648 0.00621400 0.00483500
337 1 0.000600 30000000000 0.00501948 0.00340200 0.00510600
338 1 0.000600 30000000000 0.00342848 0.00355600 0.00487400
339 1 0.000600 30000000000 0.00384748 0.00642500 0.00327600
340 1 0.000600 30000000000 0.00508648 0.00361600 0.00023800
341 1 0.000599 30000000000 0.00669048 0.00121800 0.00512600
342 1 0.000599 30000000000 0.00302448 0.00088100 0.00253700
343 1 0.000598 30000000000 0.00614648 0.00055500 0.00043100
344 1 0.000596 30000000000 0.00774048 0.00351200 0.00522700
345 1 0.000596 30000000000 0.00791448 0.00476300 0.00407800
346 1 0.000595 30000000000 0.00764248 0.00217200 0.00423800
347 1 0.000595 30000000000 0.00466348 0.00103600 0.00265700
348 1 0.000594 30000000000 0.00825848 0.00029800 0.00007300
349 1 0.000593 30000000000 0.00574248 0.00376100 0.00380400
350 1 0.000591 30000000000 0.00633948 0.00153500 0.00193300
351 1 0.000591 30000000000 0.00580048 0.00613500 0.00603400
352 1 0.000590 30000000000 0.00772348 0.00119400 0.00079800
353 1 0.000590 30000000000 0.00770948 0.00222900 0.00034700
354 1 0.000589 30000000000 0.00561448 0.00081000 0.00049900
355 1 0.000588 30000000000 0.00341448 0.00474300 0.00377000
356 1 0.000588 30000000000 0.00566548 0.00252400 0.00225000
357 1 0.000586 30000000000 0.00460148 0.00455500 0.00251600
358 1 0.000586 30000000000 0.00255948 0.00441400 0.00458000
359 1 0.000584 30000000000 0.00569948 0.00473900 0.00615900
360 1 0.000584 30000000000 0.00447348 0.00170700 0.00384200
361 1 0.000582 30000000000 0.00455348 0.00186900 0.00038800
362 1 0.000582 30000000000 0.00240648 0.00605700 0.00284600
363 1 0.000581 30000000000 0.00417848 0.00080700 0.00134500
364 1 0.000581 30000000000 0.00326648 0.00215800 0.00381000
365 1 0.000579 30000000000 0.00524448 0.00212100 0.00224900
366 1 0.000577 30000000000 0.00550748 0.00351000 0.00541700
367 1 0.000577 30000000000 0.00680748 0.00032200 0.00116500
368 1 0.000576 30000000000 0.00268748 0.00222900 0.00376200
369 1 0.000576 30000000000 0.00382648 0.00530700 0.00558100
370 1 0.000575 30000000000 0.00499148 0.00163200 0.00207700
371 1 0.000575 30000000000 0.00494648 0.00414600 0.00229200
372 1 0.000574 30000000000 0.00242148 0.00002700 0.00367900
373 1 0.000573 30000000000 0.00369248 0.00605600 0.00113800
374 1 0.000572 30000000000 0.00742248 0.00271500 0.00291700
375 1 0.000571 30000000000 0.00382148 0.00231800 0.00425100
376 1 0.000571 30000000000 0.00697448 0.00257000 0.00148100
377 1 0.000569 30000000000 0.00331348 0.00629500 0.00149200
378 1 0.000569 30000000000 0.00709848 0.00339700 0.00380700
379 1 0.000565 30000000000 0.00449848 0.00375300 0.00309700
380 1 0.000564 30000000000 0.00518048 0.00417600 0.00487400
381 1 0.000563 30000000000 0.00644848 0.00059500 0.00538300
382 1 0.000562 30000000000 0.00542548 0.00070600 0.00103200
383 1 0.000562 30000000000 0.00214248 0.00148300 0.00065400
384 1 0.000561 30000000000 0.00381048 0.00165100 0.00108200
385 1 0.000561 30000000000 0.00383348 0.00436500 0.00387900
386 1 0.000560 30000000000 0.00234448 0.00402100 0.00422400
387 1 0.000560 30000000000 0.00637948 0.00012900 0.00148600
388 1 0.000559 30000000000 0.00340148 0.00557200 0.00033000
389 1 0.000557 30000000000 0.00272848 0.00179500 0.00178600
390 1 0.000556 30000000000 0.00228848 0.00043900 0.00404900
391 1 0.000556 30000000000 0.00398248 0.00535900 0.00613900
392 1 0.000556 30000000000 0.00717048 0.00348600 0.00530200
393 1 0.000556 30000000000 0.00490248 0.00135900 0.00405800
394 1 0.000555 30000000000 0.00260148 0.00067900 0.00522100
395 1 0.000555 30000000000 0.00797148 0.00209600 0.00470400
396 1 0.000551 30000000000 0.00412248 0.00496700 0.00384400
397 1 0.000551 30000000000 0.00539948 0.00626000 0.00444500
398 1 0.000551 30000000000 0.00808248 0.00393100 0.00445900
399 1 0.000550 30000000000 0.00806248 0.00629900 0.00246900
400 1 0.000549 30000000000 0.00244548 0.00323700 0.00601400
401 1 0.000547 30000000000 0.00587548 0.00291800 0.00122100
402 1 0.000546 30000000000 0.00371648 0.00390500 0.00281600
403 1 0.000546 30000000000 0.00817048 0.00051300 0.00059400
404 1 0.000546 30000000000 0.00789348 0.00624200 0.00305500
405 1 0.000545 30000000000 0.00272148 0.00168600 0.00640300
406 1 0.000545 30000000000 0.00328348 0.00559900 0.00486600
407 1 0.000544 30000000000 0.00254448 0.00213600 0.00021700
408 1 0.000543 30000000000 0.00311548 0.00025900 0.00114800
409 1 0.000543 30000000000 0.00591648 0.00001400 0.00445600
410 1 0.000542 30000000000 0.00236348 0.00265200 0.00307900
411 1 0.000542 30000000000 0.00331848 0.00545900 0.00539400
412 1 0.000541 30000000000 0.00442648 0.00126000 0.00112600
413 1 0.000541 30000000000 0.00268048 0.00520600 0.00025000
414 1 0.000539 30000000000 0.00462348 0.00278400 0.00135300
415 1 0.000539 30000000000 0.00617848 0.00520100 0.00045700
416 1 0.000539 30000000000 0.00234748 0.00397200 0.00271400
417 1 0.000539 30000000000 0.00442048 0.00184800 0.00093300
418 1 0.000538 30000000000 0.00674048 0.00519800 0.00052700
419 1 0.000538 30000000000 0.00629948 0.00120200 0.00139800
420 1 0.000537 30000000000 0.00297848 0.00031900 0.00539600
421 1 0.000537 30000000000 0.00559448 0.00449300 0.00459000
422 1 0.000537 30000000000 0.00403248 0.00180900 0.00418600
423 1 0.000536 30000000000 0.00739448 0.00259400 0.00063700
424 1 0.000536 30000000000 0.00322348 0.00587900 0.00184400
425 1 0.000535 30000000000 0.00389648 0.00324400 0.00428000
426 1 0.000534 30000000000 0.00679848 0.00177500 0.00570300
427 1 0.000534 30000000000 0.00254748 0.00554000 0.00269200
428 1 0.000534 30000000000 0.00628448 0.00410500 0.00276600
429 1 0.000534 30000000000 0.00671148 0.00086800 0.00118900
430 1 0.000533 30000000000 0.00687948 0.00618200 0.00086900
431 1 0.000533 30000000000 0.00800148 0.00033000 0.00174900
432 1 0.000532 30000000000 0.00694648 0.00280500 0.00329500
433 1 0.000532 30000000000 0.00647548 0.00613000 0.00459600
434 1 0.000531 30000000000 0.00610548 0.00004900 0.00395400
435 1 0.000531 30000000000 0.00777148 0.00450500 0.00069000
436 1 0.000531 30000000000 0.00682948 0.00144100 0.00639400
437 1 0.000530 30000000000 0.00394848 0.00563900 0.00205800
438 1 0.000529 30000000000 0.00415548 0.00630400 0.00097500
439 1 0.000529 30000000000 0.00768948 0.00117800 0.00546100
440 1 0.000529 30000000000 0.00498048 0.00559200 0.00198700
441 1 0.000528 30000000000 0.00754148 0.00520200 0.00441400
442 1 0.000528 30000000000 0.00778148 0.00259000 0.00458600
443 1 0.000527 30000000000 0.00290048 0.00106400 0.00379000
444 1 0.000526 30000000000 0.00566348 0.00297300 0.00171100
445 1 0.000526 30000000000 0.00571148 0.00493200 0.00512600
446 1 0.000526 30000000000 0.00387748 0.00240300 0.00529000
447 1 0.000526 30000000000 0.00662848 0.00164100 0.00469800
448 1 0.000525 30000000000 0.00772448 0.00023100 0.00569200
449 1 0.000525 30000000000 0.00577848 0.00581500 0.00093100
450 1 0.000523 30000000000 0.00334648 0.00235100 0.00583200
451 1 0.000523 30000000000 0.00580748 0.00269800 0.00602700
452 1 0.000523 30000000000 0.00465348 0.00435400 0.00490200
453 1 0.000523 30000000000 0.00573748 0.00579300 0.00559900
454 1 0.000522 30000000000 0.00577048 0.00171100 0.00037200
455 1 0.000521 30000000000 0.00673448 0.00461300 0.00554000
456 1 0.000520 30000000000 0.00198048 0.00132000 0.00187700
457 1 0.000520 30000000000 0.00227148 0.00623700 0.00113600
458 1 0.000519 30000000000 0.00603948 0.00065100 0.00573100
459 1 0.000517 30000000000 0.00516148 0.00495500 0.00628200
460 1 0.000516 30000000000 0.00537148 0.00104700 0.00469200
461 1 0.000516 30000000000 0.00615748 0.00481000 0.00488700
462 1 0.000515 30000000000 0.00638148 0.00424800 0.00564900
463 1 0.000515 30000000000 0.00619148 0.00243800 0.00459300
464 1 0.000515 30000000000 0.00633948 0.00387200 0.00608400
465 1 0.000514 30000000000 0.00189748 0.00356800 0.00078100
466 1 0.000514 30000000000 0.00532348 0.00361400 0.00105800
467 1 0.000514 30000000000 0.00301448 0.00515000 0.00508800
468 1 0.000514 30000000000 0.00646248 0.00359700 0.00265400
469 1 0.000513 30000000000 0.00615048 0.00295800 0.00469000
470 1 0.000513 30000000000 0.00738248 0.00237400 0.00636300
471 1 0.000513 30000000000 0.00564248 0.00324500 0.00002200
472 1 0.000513 30000000000 0.00263148 0.00209300 0.00222800
473 1 0.000513 30000000000 0.00405448 0.00161000 0.00347400
474 1 0.000513 30000000000 0.00298948 0.00505500 0.00127600
475 1 0.000512 30000000000 0.00191848 0.00381800 0.00131600
476 1 0.000512 30000000000 0.00576048 0.00264200 0.00440200
477 1 0.000512 30000000000 0.00471248 0.00614000 0.00097800
478 1 0.000511 30000000000 0.00628448 0.00569500 0.00199500
479 1 0.000510 30000000000 0.00412248 0.00310300 0.00249400
480 1 0.000510 30000000000 0.00344548 0.00207400 0.00460500
481 1 0.000509 30000000000 0.00387848 0.00399000 0.00425800
482 1 0.000508 30000000000 0.00322748 0.00356500 0.00539100
483 1 0.000508 30000000000 0.00752448 0.00593500 0.00281600
484 1 0.000508 30000000000 0.00245448 0.00441800 0.00388500
485 1 0.000507 30000000000 0.00471048 0.00421500 0.00293000
486 1 0.000506 30000000000 0.00294348 0.00475100 0.00058200
487 1 0.000506 30000000000 0.00550048 0.00009800 0.00627800
488 1 0.000506 30000000000 0.00806048 0.00005900 0.00605500
489 1 0.000504 30000000000 0.00235648 0.00234100 0.00265800
490 1 0.000504 30000000000 0.00682548 0.00148000 0.00413800
491 1 0.000502 30000000000 0.00438848 0.00290400 0.00044700
492 1 0.000502 30000000000 0.00311848 0.00210300 0.00197200
493 1 0.000502 30000000000 0.00306048 0.00631900 0.00606400
494 1 0.000501 30000000000 0.00229148 0.00154700 0.00587900
495 1 0.000501 30000000000 0.00369048 0.00269500 0.00567100
496 1 0.000501 30000000000 0.00209548 0.00220600 0.00312200
497 1 0.000501 30000000000 0.00295248 0.00245000 0.00146300
