# Particle coordinates for 1 sphere with diameter 10 mm.
1 atom types
1 atoms
 0.0 0.02 xlo xhi
 0.0 0.10 ylo yhi
 0.0 0.02 zlo zhi


#Number, type, diameter, mass, position
Atoms

1 1 0.0005 2650 7.0e-03 0.099 7.0e-3

#Number, velocity, angular_velocity
Velocities

1 0. 0. 0. 0. 0. 0.
