/*--------------------------------*- C++ -*----------------------------------*\
| =========                 |                                                 |
| \\      /  F ield         | OpenFOAM: The Open Source CFD Toolbox           |
|  \\    /   O peration     | Version:  3.0.1                                 |
|   \\  /    A nd           | Web:      www.OpenFOAM.org                      |
|    \\/     M anipulation  |                                                 |
\*---------------------------------------------------------------------------*/
FoamFile
{
    version     2.0;
    format      ascii;
    class       surfaceScalarField;
    location    "0.2";
    object      phi;
}
// * * * * * * * * * * * * * * * * * * * * * * * * * * * * * * * * * * * * * //

dimensions      [0 3 -1 0 0 0 0];

internalField   nonuniform List<scalar> 
300
(
-0.012929383
-0.0016663897
-0.002375474
-0.010919218
0.0029074799
-0.0044512483
-0.0058323228
0.0070361336
-0.0058132017
0.00070101047
0.0093256373
-0.0058265004
0.0091118997
-0.0042303894
-0.0083932186
-0.00052503068
-0.0015473037
-0.0068539443
0.002356689
-0.0027038102
-0.003577181
0.0048590375
-0.0033366659
0.00049812632
0.0062248601
-0.0032436358
0.0061087804
-0.0024341325
-0.0055287322
-1.9883338e-05
-0.00093025972
-0.0043821557
0.0018328312
-0.0015916366
-0.00222648
0.0033760143
-0.0019151909
0.00038503687
0.0041899618
-0.001849572
0.0040962927
-0.0014312724
-0.0036841069
0.00014715177
-0.00056923443
-0.0028536913
0.0013721217
-0.00093339318
-0.0014193873
0.0023374939
-0.0011089469
0.00029178421
0.0028257301
-0.0010707037
0.0027550176
-0.00084422576
-0.0024631151
-0.00036736706
-0.0018951867
-0.00057340436
-0.00093526908
-0.00066165704
0.00022074707
-0.00062770655
-0.00049703582
-0.015013045
-0.00087986145
-0.0040647652
-0.012269797
0.0046387184
-0.0059053721
-0.0058392355
0.0095486355
-0.0069410307
0.0022947965
0.011971584
-0.0065110791
0.010947924
-0.0044023198
-0.0095512115
7.8848931e-05
-0.0024535495
-0.0074843349
0.0034638878
-0.0036220324
-0.0034828851
0.0062906613
-0.0040779983
0.0013063173
0.0076372377
-0.0037261852
0.0071252703
-0.0026242635
-0.0061901798
0.00033607541
-0.001427346
-0.004705489
0.0024890938
-0.0021098783
-0.0021608774
0.0041849734
-0.0023619408
0.00080220369
0.0049754553
-0.0021578043
0.0046890459
-0.0015691963
-0.0040481792
0.00034731442
-0.00082711274
-0.0030290836
0.0017320046
-0.0012180427
-0.0013814078
0.0027870065
-0.0013640498
0.00051709646
0.0032715067
-0.0012537397
0.0031054453
-0.00093579938
-0.0026690281
-0.00049441397
-0.0019835374
-0.00071462645
-0.00090127158
-0.00079304385
0.00035116225
-0.00073124868
-0.00056245976
-0.01685186
0.00068781844
-0.0065999961
-0.013301159
0.0068673962
-0.0084508428
-0.005405493
0.012412647
-0.0078993221
0.0044044554
0.01480098
-0.005976438
0.012751381
-0.0036029623
-0.010719368
0.0010932593
-0.0033932033
-0.0079378624
0.0049652477
-0.0045123319
-0.0031293892
0.0080068612
-0.0045004539
0.0024072777
0.0092160202
-0.0036824629
0.0081879016
-0.0023702082
-0.0068724132
0.00093246144
-0.0018012224
-0.0049565258
0.0033779767
-0.0024548214
-0.0019565598
0.0051830023
-0.0025514706
0.0013907434
0.0058826772
-0.0021746955
0.0053252633
-0.0014866786
-0.0044390303
0.00067889807
-0.00097926693
-0.0031750574
0.0022347175
-0.0013576435
-0.0012708649
0.0033589131
-0.001447757
0.00083533063
0.0037950339
-0.0012704573
0.0034796688
-0.00090211906
-0.0028892485
-0.00055295716
-0.0020618633
-0.0007640237
-0.00083937977
-0.00082217898
0.00052008747
-0.00073647661
-0.00054851918
-0.018698867
0.0039151241
-0.0078180638
-0.012741336
0.010813131
-0.0093375523
-0.0033975024
0.015790658
-0.008012452
0.0067829247
0.01701154
-0.005601552
0.013877629
-0.0031576368
-0.011839164
0.0026873747
-0.0037196046
-0.0079224624
0.0070218859
-0.0046345689
-0.0022730111
0.0099494088
-0.0043247346
0.0036867704
0.010681684
-0.0033154512
0.009061878
-0.0020481261
-0.0075263135
0.0017546328
-0.0018377892
-0.005051673
0.0044747375
-0.0023791476
-0.0015767338
0.0062847795
-0.0023568732
0.0020759847
0.0067822164
-0.001917694
0.0059086207
-0.0012524254
-0.0048174943
0.0011051849
-0.00093645855
-0.0032645812
0.0028281134
-0.0012579204
-0.0010934966
0.0039837749
-0.0012978972
0.0012037586
0.0043283772
-0.0010959355
0.0038330675
-0.00074056925
-0.0031003036
-0.00050050567
-0.0021197129
-0.0006776642
-0.00075385186
-0.00070972796
0.00070819666
-0.00061838584
-0.0004402886
-0.020120636
0.0081364574
-0.011420116
0.015534112
-0.00097070451
0.019455276
0.0092373819
0.019247134
0.014949447
-0.012746588
0.0045845986
-0.0076134063
0.009279099
-0.0012584863
0.011908542
0.0049615871
0.012064611
0.0098468179
-0.0080677385
0.0026585851
-0.0050293166
0.0055962141
-0.0011359287
0.007340619
0.0027470801
0.0075992743
0.0064192185
-0.005139237
0.001541577
-0.0033044902
0.0034082254
-0.00089106544
0.0045704827
0.0015667399
0.0048043914
0.004124969
-0.0032774697
-0.0021517308
-0.00066245184
0.000886507
)
;

boundaryField
{
    movingWall
    {
        type            calculated;
        value           nonuniform 0();
    }
    CPLReceiveMD
    {
        type            calculated;
        value           nonuniform 0();
    }
    streamwiseIn
    {
        type            cyclic;
        value           nonuniform 0();
    }
    streamwiseOut
    {
        type            cyclic;
        value           nonuniform 0();
    }
    front
    {
        type            cyclic;
        value           nonuniform 0();
    }
    back
    {
        type            cyclic;
        value           nonuniform 0();
    }
    procBoundary23to5throughback
    {
        type            processorCyclic;
        value           nonuniform List<scalar> 
25
(
-0.0068205373
-0.0029695977
-0.0013839357
-0.00069316446
-0.00033526786
-0.0075775072
-0.00351515
-0.0016977707
-0.00086407941
-0.00044838412
-0.0061243765
-0.0031139348
-0.0016076805
-0.00084929032
-0.00045275063
-0.0042176206
-0.0023258488
-0.0012916969
-0.00071493261
-0.0003823659
-0.002480026
-0.0014790341
-0.00089314208
-0.00053444479
-0.00028863519
)
;
    }
    procBoundary23to14
    {
        type            processor;
        value           nonuniform List<scalar> 
25
(
0.0012419567
0.0029666406
0.0040670817
0.0041321996
0.0030754093
0.00085128309
0.0017195297
0.0022590981
0.0022558709
0.0017162474
0.00057588298
0.0010065223
0.001265323
0.0012441802
0.00094421346
0.00037111622
0.00059198018
0.0007155227
0.00068775481
0.00049725867
0.00023010701
0.00034908866
0.00040775942
0.00036834178
0.00021582895
)
;
    }
    procBoundary23to20
    {
        type            processor;
        value           nonuniform List<scalar> 
25
(
0.0039602995
-0.0035094236
-0.01031567
-0.014118248
-0.013457909
0.0034857828
-0.0059879322
-0.014876473
-0.019440432
-0.016785111
0.0016940695
-0.0079150139
-0.019441889
-0.025142161
-0.020001917
-0.0052216279
-0.015897397
-0.025069621
-0.027619464
-0.02098318
-0.015004153
-0.026091681
-0.031633885
-0.030679294
-0.022298133
)
;
    }
    procBoundary23to21throughstreamwiseOut
    {
        type            processorCyclic;
        value           nonuniform List<scalar> 
25
(
0.0062772527
0.0040901212
0.0026842329
0.0017737266
0.0011522842
0.0083433436
0.005290839
0.0033667733
0.0021840376
0.0014120056
0.010977136
0.0067320061
0.0041625562
0.0026387793
0.0016936991
0.013501973
0.008183478
0.004977308
0.0030984551
0.0019683387
0.01594408
0.0094554355
0.0056664097
0.0034633028
0.0021761043
)
;
    }
    procBoundary23to22
    {
        type            processor;
        value           nonuniform List<scalar> 
25
(
0.011533339
0.0080083022
0.0055612805
0.0038207968
0.0025964019
0.014188299
0.0094527586
0.0063389646
0.0042541621
0.0028640672
0.017197385
0.011266955
0.0073546324
0.0048130821
0.0031941856
0.021154188
0.013359174
0.0084662204
0.0054092504
0.0035290021
0.025784262
0.015539389
0.00953107
0.0059379821
0.0038036604
)
;
    }
    procBoundary23to26
    {
        type            processor;
        value           nonuniform List<scalar> 
25
(
0.0001883119
0.00096852328
0.0015698834
0.0018420609
0.0017135746
0.00032160668
0.0011896171
0.0018447361
0.0021306455
0.0019735141
0.00052179369
0.0014820949
0.0021767759
0.002446213
0.0022323552
0.00075774194
0.0018134731
0.0025327513
0.0027616409
0.0024655145
0.0009715988
0.0021128627
0.0028482315
0.003030113
0.0026413767
)
;
    }
}


// ************************************************************************* //
