/*--------------------------------*- C++ -*----------------------------------*\
| =========                 |                                                 |
| \\      /  F ield         | OpenFOAM: The Open Source CFD Toolbox           |
|  \\    /   O peration     | Version:  3.0.1                                 |
|   \\  /    A nd           | Web:      www.OpenFOAM.org                      |
|    \\/     M anipulation  |                                                 |
\*---------------------------------------------------------------------------*/
FoamFile
{
    version     2.0;
    format      ascii;
    class       volVectorField;
    location    "0.2";
    object      U;
}
// * * * * * * * * * * * * * * * * * * * * * * * * * * * * * * * * * * * * * //

dimensions      [0 1 -1 0 0 0 0];

internalField   nonuniform List<vector> 
125
(
(-3.0623673e-05 -6.9373303e-06 -4.4947759e-06)
(-2.9924728e-05 8.0392738e-06 -9.2673845e-06)
(-2.1061182e-05 2.1593443e-05 -1.2374169e-05)
(-6.4677107e-06 2.9151588e-05 -1.248668e-05)
(8.8716866e-06 2.8106458e-05 -9.170847e-06)
(-2.0524369e-05 -2.6916098e-06 -2.9872127e-06)
(-1.9111856e-05 6.5925355e-06 -5.5271294e-06)
(-1.3095982e-05 1.4818553e-05 -7.0036104e-06)
(-3.8765254e-06 1.9364458e-05 -6.8894541e-06)
(5.7399865e-06 1.8969507e-05 -5.2026225e-06)
(-1.3874832e-05 -6.5664004e-07 -1.8783393e-06)
(-1.2414566e-05 5.2443639e-06 -3.247381e-06)
(-8.2892598e-06 1.0269189e-05 -3.979447e-06)
(-2.3167567e-06 1.2983905e-05 -3.8728018e-06)
(3.834659e-06 1.2727844e-05 -2.9756266e-06)
(-9.3883257e-06 1.7102321e-07 -1.1736271e-06)
(-8.1860273e-06 4.0102284e-06 -1.9065884e-06)
(-5.3564415e-06 7.130288e-06 -2.2819335e-06)
(-1.4178701e-06 8.7531685e-06 -2.2002511e-06)
(2.5794943e-06 8.5485045e-06 -1.6805427e-06)
(-6.3286757e-06 4.2565116e-07 -7.4592101e-07)
(-5.4553014e-06 2.9282662e-06 -1.152558e-06)
(-3.5463198e-06 4.8803723e-06 -1.3378423e-06)
(-8.9854033e-07 5.8278029e-06 -1.2469304e-06)
(1.7143783e-06 5.5776435e-06 -8.9244919e-07)
(-3.6549729e-05 -5.2155014e-06 -8.0108197e-06)
(-3.4251731e-05 1.3354589e-05 -1.2913165e-05)
(-2.2808125e-05 3.0280883e-05 -1.5951864e-05)
(-4.4985138e-06 3.8845422e-05 -1.5454967e-05)
(1.374255e-05 3.4435275e-05 -1.0821248e-05)
(-2.3781001e-05 -8.9988334e-07 -4.9886608e-06)
(-2.1360862e-05 1.0161191e-05 -7.9005828e-06)
(-1.3781117e-05 1.9700967e-05 -9.2724647e-06)
(-2.7519932e-06 2.4354061e-05 -8.7225276e-06)
(8.2721415e-06 2.2484305e-05 -6.3342293e-06)
(-1.567644e-05 5.5965091e-07 -2.9424354e-06)
(-1.3650882e-05 7.4555468e-06 -4.625057e-06)
(-8.6152562e-06 1.3058491e-05 -5.3477016e-06)
(-1.7151768e-06 1.570738e-05 -5.0131731e-06)
(5.2101199e-06 1.4720239e-05 -3.7569465e-06)
(-1.0386394e-05 8.7231682e-07 -1.7435732e-06)
(-8.8620224e-06 5.28345e-06 -2.6883579e-06)
(-5.5292841e-06 8.6993208e-06 -3.0916162e-06)
(-1.0902453e-06 1.0283644e-05 -2.9070162e-06)
(3.3741264e-06 9.7209215e-06 -2.2290436e-06)
(-6.9211282e-06 8.4504146e-07 -1.076289e-06)
(-5.8238783e-06 3.6550919e-06 -1.609426e-06)
(-3.6150624e-06 5.7820031e-06 -1.8185341e-06)
(-6.9357624e-07 6.7417124e-06 -1.6991699e-06)
(2.2019497e-06 6.3379118e-06 -1.3255761e-06)
(-4.2605784e-05 -8.3453138e-07 -1.3317644e-05)
(-3.786577e-05 1.8881223e-05 -1.7920786e-05)
(-2.3602982e-05 3.9544976e-05 -1.8538245e-05)
(-1.3370934e-06 4.9212965e-05 -1.5507822e-05)
(1.9773521e-05 4.0601258e-05 -9.8967801e-06)
(-2.7509354e-05 2.3767747e-06 -7.3039036e-06)
(-2.3395659e-05 1.4880644e-05 -1.0163285e-05)
(-1.3917927e-05 2.5422715e-05 -1.0718189e-05)
(-9.3828951e-07 2.9806252e-05 -9.2128125e-06)
(1.1462817e-05 2.6033809e-05 -6.2375464e-06)
(-1.7799378e-05 2.5884477e-06 -4.0341401e-06)
(-1.4819832e-05 1.0456589e-05 -5.7037018e-06)
(-8.6773758e-06 1.6450037e-05 -6.139313e-06)
(-7.2600145e-07 1.8799417e-05 -5.4117486e-06)
(6.941406e-06 1.683303e-05 -3.8201822e-06)
(-1.1573931e-05 2.0371696e-06 -2.25703e-06)
(-9.5340702e-06 7.0258594e-06 -3.218541e-06)
(-5.5750996e-06 1.0659456e-05 -3.5142919e-06)
(-5.5529739e-07 1.2067172e-05 -3.1554332e-06)
(4.3400467e-06 1.0979875e-05 -2.2978001e-06)
(-7.6094654e-06 1.5114003e-06 -1.3088052e-06)
(-6.1975465e-06 4.6495897e-06 -1.8481121e-06)
(-3.6360637e-06 6.9106623e-06 -2.0187045e-06)
(-4.0558236e-07 7.7888715e-06 -1.8348685e-06)
(2.7650426e-06 7.1276377e-06 -1.3890944e-06)
(-4.985728e-05 1.1739698e-05 -1.8164928e-05)
(-3.9472328e-05 3.3655251e-05 -2.2243219e-05)
(-2.0395158e-05 5.0863714e-05 -1.9873448e-05)
(4.1429523e-06 5.5318599e-05 -1.4330722e-05)
(2.5893521e-05 4.3343228e-05 -8.2927978e-06)
(-3.1523228e-05 8.3836216e-06 -8.9047103e-06)
(-2.4775146e-05 2.2378276e-05 -1.1434509e-05)
(-1.2830643e-05 3.2099898e-05 -1.1024934e-05)
(1.7286499e-06 3.4450134e-05 -8.6888462e-06)
(1.4865826e-05 2.8560902e-05 -5.4987057e-06)
(-2.0005339e-05 5.6065246e-06 -4.5502737e-06)
(-1.5756055e-05 1.4400291e-05 -6.0421592e-06)
(-8.3233028e-06 2.0262388e-05 -6.1330589e-06)
(6.0395416e-07 2.1764759e-05 -5.1087965e-06)
(8.8153778e-06 1.8659985e-05 -3.4142249e-06)
(-1.2791888e-05 3.5976517e-06 -2.3947194e-06)
(-1.0119284e-05 9.1390397e-06 -3.2692405e-06)
(-5.4661762e-06 1.2819929e-05 -3.4313957e-06)
(1.2624645e-07 1.3860524e-05 -2.9573917e-06)
(5.3749277e-06 1.2152009e-05 -2.0432646e-06)
(-8.2917738e-06 2.3395488e-06 -1.3169044e-06)
(-6.5337776e-06 5.8062364e-06 -1.8019165e-06)
(-3.6018188e-06 8.1380622e-06 -1.9144449e-06)
(-6.3966068e-08 8.8505819e-06 -1.6935495e-06)
(3.3433299e-06 7.8612006e-06 -1.2357825e-06)
(-5.7411922e-05 2.9109668e-05 -1.843988e-05)
(-3.9574287e-05 5.2196805e-05 -2.115028e-05)
(-1.5690482e-05 6.3761827e-05 -1.7662218e-05)
(1.0243558e-05 6.2138239e-05 -1.2241503e-05)
(3.174012e-05 4.6407836e-05 -7.0042951e-06)
(-3.537972e-05 1.599143e-05 -8.3770509e-06)
(-2.5515882e-05 3.1081704e-05 -1.0188019e-05)
(-1.1172263e-05 3.9163103e-05 -9.294975e-06)
(4.5879391e-06 3.9028177e-05 -7.0410032e-06)
(1.8033159e-05 3.0912381e-05 -4.3919331e-06)
(-2.2011551e-05 9.0984387e-06 -4.0293209e-06)
(-1.6402617e-05 1.8621857e-05 -5.0963395e-06)
(-7.7440129e-06 2.4043575e-05 -4.9544198e-06)
(1.9928327e-06 2.4530871e-05 -4.0086244e-06)
(1.0513871e-05 2.0288471e-05 -2.6728497e-06)
(-1.3854287e-05 5.270539e-06 -2.0389084e-06)
(-1.0570746e-05 1.1266102e-05 -2.6525222e-06)
(-5.2632507e-06 1.487807e-05 -2.6834543e-06)
(8.328337e-07 1.5482419e-05 -2.262579e-06)
(6.2846954e-06 1.3158317e-05 -1.5836682e-06)
(-8.8561583e-06 3.1516225e-06 -1.0447728e-06)
(-6.795087e-06 6.9058574e-06 -1.4075669e-06)
(-3.5276967e-06 9.2678844e-06 -1.4528935e-06)
(2.7307998e-07 9.7831082e-06 -1.2503309e-06)
(3.8258419e-06 8.4469313e-06 -9.1053475e-07)
)
;

boundaryField
{
    movingWall
    {
        type            fixedValue;
        value           nonuniform 0();
    }
    CPLReceiveMD
    {
        type            fixedValue;
        value           nonuniform 0();
    }
    streamwiseIn
    {
        type            cyclic;
    }
    streamwiseOut
    {
        type            cyclic;
    }
    front
    {
        type            cyclic;
    }
    back
    {
        type            cyclic;
    }
    procBoundary23to5throughback
    {
        type            processorCyclic;
        value           nonuniform List<vector> 
25
(
(-6.3518482e-05 4.6251467e-05 -1.1974012e-05)
(-3.8281814e-05 2.2794181e-05 -5.0238119e-06)
(-2.3447794e-05 1.1944667e-05 -2.2533668e-06)
(-1.4621522e-05 6.5821999e-06 -1.0867424e-06)
(-9.2061509e-06 3.7635637e-06 -5.4100277e-07)
(-3.8694664e-05 6.8948026e-05 -1.269102e-05)
(-2.569307e-05 3.8432217e-05 -5.7237123e-06)
(-1.6681154e-05 2.1935788e-05 -2.6981953e-06)
(-1.076383e-05 1.2827812e-05 -1.3328755e-06)
(-6.9418982e-06 7.6827562e-06 -6.8589115e-07)
(-1.1486379e-05 7.5441914e-05 -9.7808751e-06)
(-9.6836267e-06 4.4807696e-05 -4.8774502e-06)
(-7.2355875e-06 2.6873908e-05 -2.4704078e-06)
(-5.0762329e-06 1.6321456e-05 -1.2720082e-06)
(-3.4445827e-06 1.0008423e-05 -6.8788566e-07)
(1.4800876e-05 6.9117833e-05 -6.6751435e-06)
(6.6316921e-06 4.2683012e-05 -3.596202e-06)
(2.8855244e-06 2.6543183e-05 -1.9455826e-06)
(1.2260326e-06 1.6618817e-05 -1.0505436e-06)
(4.7839267e-07 1.039138e-05 -5.8153931e-07)
(3.5724312e-05 4.9918831e-05 -4.2525539e-06)
(2.0137922e-05 3.2892347e-05 -2.3881387e-06)
(1.167944e-05 2.146825e-05 -1.3753599e-06)
(6.9337027e-06 1.3914324e-05 -7.9524978e-07)
(4.1677944e-06 8.9310496e-06 -4.0983881e-07)
)
;
    }
    procBoundary23to14
    {
        type            processor;
        value           nonuniform List<vector> 
25
(
(-2.6150449e-05 -8.2976156e-06 -1.8303958e-06)
(-2.6372339e-05 3.748422e-06 -5.166678e-06)
(-1.9588831e-05 1.5397326e-05 -7.2789819e-06)
(-7.7018368e-06 2.2506331e-05 -7.4088753e-06)
(5.53399e-06 2.3654587e-05 -5.4562178e-06)
(-1.8107322e-05 -3.5163201e-06 -1.2115135e-06)
(-1.7344464e-05 4.1411875e-06 -2.865952e-06)
(-1.2418792e-05 1.1306245e-05 -3.9171025e-06)
(-4.5529815e-06 1.5740183e-05 -3.9568807e-06)
(4.0837084e-06 1.6289085e-05 -2.9999607e-06)
(-1.2510059e-05 -1.2539348e-06 -8.0302817e-07)
(-1.1549775e-05 3.8350058e-06 -1.6322136e-06)
(-7.9898355e-06 8.3368137e-06 -2.1413801e-06)
(-2.7189972e-06 1.1018177e-05 -2.1328229e-06)
(3.0113813e-06 1.1198159e-05 -1.6292595e-06)
(-8.6151988e-06 -2.6010145e-07 -5.0107124e-07)
(-7.753716e-06 3.1886271e-06 -9.3152046e-07)
(-5.2356215e-06 6.0577162e-06 -1.1820909e-06)
(-1.6916361e-06 7.6577725e-06 -1.1653972e-06)
(2.2061725e-06 7.6377441e-06 -8.8558961e-07)
(-5.9041261e-06 1.0969133e-07 -3.0307187e-07)
(-5.231957e-06 2.4495121e-06 -5.2696241e-07)
(-3.5206901e-06 4.3075264e-06 -6.6197353e-07)
(-1.1389694e-06 5.3128746e-06 -6.4413139e-07)
(1.6280457e-06 5.3176174e-06 -4.6130076e-07)
)
;
    }
    procBoundary23to20
    {
        type            processor;
        value           nonuniform List<vector> 
25
(
(-4.6532067e-05 -1.5528429e-05 -6.0693263e-06)
(-4.7642627e-05 9.9095961e-06 -1.5133296e-05)
(-3.4208295e-05 3.2135794e-05 -2.1887168e-05)
(-1.0389539e-05 4.4573448e-05 -2.3228545e-05)
(1.4226464e-05 4.1323198e-05 -1.5983312e-05)
(-5.7242104e-05 -1.5750684e-05 -1.1091459e-05)
(-5.6857242e-05 1.7943213e-05 -1.8742532e-05)
(-3.9271946e-05 4.8359502e-05 -2.7223999e-05)
(-6.9063831e-06 6.5027214e-05 -2.8783906e-05)
(2.4073763e-05 5.292272e-05 -1.882903e-05)
(-6.5033156e-05 -1.3120024e-05 -2.42591e-05)
(-6.377516e-05 1.4912849e-05 -3.0463945e-05)
(-4.4249664e-05 6.2197138e-05 -3.1301021e-05)
(-1.9945667e-06 8.8794796e-05 -2.5685992e-05)
(3.6105703e-05 6.4605029e-05 -1.51455e-05)
(-7.8262831e-05 1.3721666e-05 -3.8848905e-05)
(-6.3899154e-05 4.6890268e-05 -4.4750087e-05)
(-3.4493985e-05 8.0447876e-05 -3.5241785e-05)
(9.2491426e-06 9.1205123e-05 -2.1614122e-05)
(4.649423e-05 6.5260799e-05 -1.1305285e-05)
(-9.3601243e-05 5.4263638e-05 -4.2888816e-05)
(-6.016803e-05 8.677563e-05 -4.5480791e-05)
(-2.1113688e-05 0.00010283029 -3.3873176e-05)
(2.1941938e-05 9.9050636e-05 -2.0840239e-05)
(5.6831047e-05 6.7952142e-05 -1.0967538e-05)
)
;
    }
    procBoundary23to21throughstreamwiseOut
    {
        type            processorCyclic;
        value           nonuniform List<vector> 
25
(
(2.0046014e-05 2.0665112e-05 -4.2781209e-06)
(1.3178672e-05 1.4327431e-05 -2.7010212e-06)
(8.8062856e-06 9.8234131e-06 -1.6740633e-06)
(5.959688e-06 6.6328879e-06 -1.0322972e-06)
(4.0555181e-06 4.5818338e-06 -6.7302638e-07)
(2.536193e-05 2.3043803e-05 -4.5531339e-06)
(1.6142823e-05 1.5821632e-05 -2.9996978e-06)
(1.050437e-05 1.0809365e-05 -1.9064261e-06)
(6.9418226e-06 7.2754739e-06 -1.1464638e-06)
(4.6241106e-06 4.8940969e-06 -6.4850553e-07)
(3.1736121e-05 2.4570083e-05 -3.3568517e-06)
(1.9689448e-05 1.6974139e-05 -2.6191282e-06)
(1.2514533e-05 1.1676647e-05 -1.8064908e-06)
(8.1003496e-06 7.8908085e-06 -1.1546319e-06)
(5.3024374e-06 5.2530432e-06 -6.934883e-07)
(3.780621e-05 2.3690201e-05 -2.3641229e-06)
(2.323217e-05 1.7371993e-05 -2.1185043e-06)
(1.4570902e-05 1.2273861e-05 -1.5363312e-06)
(9.2899937e-06 8.3884764e-06 -1.012743e-06)
(5.9969826e-06 5.5805935e-06 -6.3275032e-07)
(4.2953316e-05 2.3340358e-05 -2.4107116e-06)
(2.6278688e-05 1.780193e-05 -1.7689072e-06)
(1.6319868e-05 1.2782408e-05 -1.1445621e-06)
(1.0265052e-05 8.7943893e-06 -7.0380401e-07)
(6.5633706e-06 5.8781139e-06 -4.2586643e-07)
)
;
    }
    procBoundary23to22
    {
        type            processor;
        value           nonuniform List<vector> 
25
(
(-2.4193483e-05 -1.7968427e-05 1.1318967e-06)
(-1.7512866e-05 -1.0156306e-05 1.4655094e-07)
(-1.2436369e-05 -5.8916797e-06 -8.0999258e-08)
(-8.6861986e-06 -3.5359277e-06 -1.3539267e-07)
(-5.9711092e-06 -2.1799631e-06 -1.3555597e-07)
(-3.0546664e-05 -2.0106517e-05 -9.3105257e-07)
(-2.109824e-05 -1.0712099e-05 -9.1559759e-07)
(-1.4419068e-05 -5.9390607e-06 -7.0051071e-07)
(-9.8093498e-06 -3.4718621e-06 -5.0275263e-07)
(-6.6581335e-06 -2.1120982e-06 -3.2863624e-07)
(-3.8745001e-05 -1.8642584e-05 -4.6132337e-06)
(-2.581777e-05 -9.9257641e-06 -2.4210576e-06)
(-1.7052772e-05 -5.4788346e-06 -1.3748023e-06)
(-1.127723e-05 -3.1640532e-06 -8.13047e-07)
(-7.5105612e-06 -1.923734e-06 -4.7746651e-07)
(-4.9852799e-05 -1.308436e-05 -7.4370785e-06)
(-3.156446e-05 -7.4736673e-06 -3.5641423e-06)
(-2.0078726e-05 -4.3310499e-06 -1.829986e-06)
(-1.2896525e-05 -2.5745263e-06 -9.8888424e-07)
(-8.4109904e-06 -1.6120171e-06 -5.552236e-07)
(-6.3054302e-05 -6.0247294e-06 -7.4890763e-06)
(-3.7698275e-05 -4.318671e-06 -3.429433e-06)
(-2.3058744e-05 -2.9035765e-06 -1.653885e-06)
(-1.4388636e-05 -1.8892908e-06 -8.2288855e-07)
(-9.2067958e-06 -1.2551097e-06 -4.9318979e-07)
)
;
    }
    procBoundary23to26
    {
        type            processor;
        value           nonuniform List<vector> 
25
(
(-4.2800964e-06 4.2814157e-07 -4.3827695e-07)
(-3.7313062e-06 2.0380556e-06 -7.0100859e-07)
(-2.4569048e-06 3.2694745e-06 -8.0745676e-07)
(-7.205988e-07 3.8497273e-06 -7.7141326e-07)
(1.3335252e-06 3.6457053e-06 -6.6024831e-07)
(-4.6192044e-06 6.752017e-07 -6.5782402e-07)
(-3.9250608e-06 2.4725243e-06 -9.670345e-07)
(-2.4426637e-06 3.801122e-06 -1.0613261e-06)
(-5.3433667e-07 4.3810355e-06 -9.4594753e-07)
(1.5265108e-06 4.0908948e-06 -6.7904938e-07)
(-5.0006074e-06 1.0559342e-06 -7.6252269e-07)
(-4.1348083e-06 3.048275e-06 -1.0673966e-06)
(-2.4358178e-06 4.4538491e-06 -1.1582327e-06)
(-3.3832204e-07 4.9901419e-06 -1.0465638e-06)
(1.8042183e-06 4.5683609e-06 -7.7451125e-07)
(-5.373635e-06 1.5235839e-06 -7.544972e-07)
(-4.3207709e-06 3.6975136e-06 -1.0129728e-06)
(-2.4218309e-06 5.1485132e-06 -1.0741736e-06)
(-1.5061517e-07 5.6039968e-06 -9.6315501e-07)
(2.1049393e-06 5.0212741e-06 -7.2397099e-07)
(-5.6933203e-06 1.9830286e-06 -6.1489351e-07)
(-4.4544846e-06 4.2972884e-06 -7.7600244e-07)
(-2.3860001e-06 5.7587316e-06 -8.1309347e-07)
(1.188053e-08 6.1191072e-06 -7.2178046e-07)
(2.379701e-06 5.3749168e-06 -5.1381923e-07)
)
;
    }
}


// ************************************************************************* //
