/*--------------------------------*- C++ -*----------------------------------*\
| =========                 |                                                 |
| \\      /  F ield         | OpenFOAM: The Open Source CFD Toolbox           |
|  \\    /   O peration     | Version:  3.0.1                                 |
|   \\  /    A nd           | Web:      www.OpenFOAM.org                      |
|    \\/     M anipulation  |                                                 |
\*---------------------------------------------------------------------------*/
FoamFile
{
    version     2.0;
    format      ascii;
    class       volScalarField;
    location    "0.1";
    object      p;
}
// * * * * * * * * * * * * * * * * * * * * * * * * * * * * * * * * * * * * * //

dimensions      [0 2 -2 0 0 0 0];

internalField   nonuniform List<scalar> 
125
(
-0.052832116
-0.053121173
-0.05334767
-0.053470707
-0.053462824
-0.052803238
-0.053001978
-0.053154176
-0.053231061
-0.05321629
-0.052783334
-0.052922501
-0.053024817
-0.053071737
-0.053054979
-0.052768899
-0.052872452
-0.052943574
-0.052971675
-0.052954333
-0.05276105
-0.052847223
-0.052903123
-0.052922613
-0.052905952
-0.052839455
-0.05311906
-0.0533376
-0.05345446
-0.053443991
-0.052807405
-0.053001725
-0.053148904
-0.053222016
-0.053206212
-0.052785588
-0.052923056
-0.053022824
-0.053067257
-0.053048849
-0.052770774
-0.052873675
-0.052944173
-0.052971216
-0.052952234
-0.052762543
-0.052848881
-0.052905931
-0.052925916
-0.052908701
-0.052853307
-0.053129326
-0.05334353
-0.053455244
-0.053439938
-0.052816964
-0.053009429
-0.053153742
-0.053223393
-0.053204816
-0.052792246
-0.052929092
-0.053027236
-0.05306962
-0.05304932
-0.052775491
-0.052878741
-0.052949132
-0.052975567
-0.052954972
-0.052765846
-0.05285369
-0.052911805
-0.052931747
-0.052912637
-0.052870885
-0.053151346
-0.05336637
-0.053474994
-0.053452647
-0.05282897
-0.053023999
-0.053168389
-0.053236215
-0.053214543
-0.05280044
-0.052938932
-0.053037472
-0.053079564
-0.053058194
-0.052780506
-0.052886154
-0.052958071
-0.052984701
-0.052962303
-0.052768923
-0.052860365
-0.052920572
-0.052940092
-0.052917493
-0.052886477
-0.053180546
-0.053402813
-0.053512534
-0.053482678
-0.052841009
-0.0530425
-0.053190644
-0.053259846
-0.053235863
-0.052809064
-0.052951187
-0.053052672
-0.053096368
-0.053074298
-0.052784719
-0.052895065
-0.052970275
-0.052997082
-0.052971517
-0.052770035
-0.05286741
-0.052930897
-0.052949041
-0.052920672
)
;

boundaryField
{
    movingWall
    {
        type            zeroGradient;
    }
    CPLReceiveMD
    {
        type            zeroGradient;
    }
    streamwiseIn
    {
        type            cyclic;
    }
    streamwiseOut
    {
        type            cyclic;
    }
    front
    {
        type            cyclic;
    }
    back
    {
        type            cyclic;
    }
    procBoundary16to7
    {
        type            processor;
        value           nonuniform List<scalar> 
25
(
-0.052832902
-0.05313854
-0.053377788
-0.053508
-0.053498968
-0.052801545
-0.053009421
-0.053168925
-0.053250696
-0.053238062
-0.052780304
-0.052925247
-0.053032046
-0.053081894
-0.053066966
-0.052765254
-0.052872909
-0.052947266
-0.052977373
-0.052960268
-0.052756908
-0.052846514
-0.052905424
-0.052926663
-0.05290857
)
;
    }
    procBoundary16to13
    {
        type            processor;
        value           nonuniform List<scalar> 
25
(
-0.05287294
-0.053300024
-0.053639893
-0.053835209
-0.053838838
-0.052874373
-0.053286044
-0.053612821
-0.053798837
-0.053798914
-0.052890005
-0.053296192
-0.053616266
-0.053794483
-0.053786733
-0.052918957
-0.053328887
-0.053650493
-0.053825752
-0.053807952
-0.052953529
-0.053379496
-0.053711297
-0.053888249
-0.053860546
)
;
    }
    procBoundary16to15
    {
        type            processor;
        value           nonuniform List<scalar> 
25
(
-0.052519193
-0.05258459
-0.052624576
-0.052645925
-0.052655265
-0.052532093
-0.052593621
-0.052630972
-0.052651512
-0.052660062
-0.052545362
-0.05260271
-0.052637691
-0.052656485
-0.052663518
-0.052557531
-0.052609148
-0.052641878
-0.052658855
-0.052664657
-0.052563163
-0.0526101
-0.052641707
-0.052657589
-0.052663323
)
;
    }
    procBoundary16to17
    {
        type            processor;
        value           nonuniform List<scalar> 
25
(
-0.053323487
-0.053118383
-0.052983929
-0.052899996
-0.05285896
-0.053302824
-0.053107587
-0.052978794
-0.052899621
-0.052862984
-0.053292945
-0.053102416
-0.052976812
-0.052900406
-0.052865598
-0.053295649
-0.05310525
-0.052980745
-0.052904034
-0.052867758
-0.05331125
-0.053116398
-0.052989501
-0.052908193
-0.052867826
)
;
    }
    procBoundary16to25
    {
        type            processor;
        value           nonuniform List<scalar> 
25
(
-0.052896745
-0.053208166
-0.053441076
-0.05355507
-0.053521441
-0.0528419
-0.053057261
-0.053213728
-0.053285761
-0.053258252
-0.052807557
-0.052958876
-0.053067321
-0.053114123
-0.053090227
-0.052784639
-0.052899943
-0.052980593
-0.05301091
-0.052985413
-0.052772284
-0.052872656
-0.052940072
-0.052961209
-0.052933494
)
;
    }
}


// ************************************************************************* //
