/*--------------------------------*- C++ -*----------------------------------*\
| =========                 |                                                 |
| \\      /  F ield         | OpenFOAM: The Open Source CFD Toolbox           |
|  \\    /   O peration     | Version:  3.0.1                                 |
|   \\  /    A nd           | Web:      www.OpenFOAM.org                      |
|    \\/     M anipulation  |                                                 |
\*---------------------------------------------------------------------------*/
FoamFile
{
    version     2.0;
    format      ascii;
    class       surfaceScalarField;
    location    "0.1";
    object      phi;
}
// * * * * * * * * * * * * * * * * * * * * * * * * * * * * * * * * * * * * * //

dimensions      [0 3 -1 0 0 0 0];

internalField   nonuniform List<scalar> 
300
(
0.00057724602
-5.7635551e-05
1.463596e-05
0.00045233268
-0.00023800132
-4.250685e-06
0.00024575185
-0.00038640016
-2.0144721e-05
-1.5682614e-05
-0.00047861294
-3.2481196e-05
-0.00049241808
-3.7641794e-05
0.0003968807
-3.973755e-05
8.3134032e-06
0.00030394278
-0.00015870242
-5.1769678e-07
0.00015355415
-0.00025832037
-1.054129e-05
-2.9475565e-05
-0.00031817495
-1.8076843e-05
-0.00032216106
-2.0137282e-05
0.00027791481
-2.8821875e-05
4.4975551e-06
0.00020432706
-9.9942015e-05
1.105463e-06
9.3704591e-05
-0.00016223797
-3.9857934e-06
-3.3456956e-05
-0.00019982491
-8.9521845e-06
-0.00020099822
-1.2246241e-05
0.00020679387
-1.5671518e-05
3.7418671e-06
0.00014203128
-5.0374177e-05
2.4407703e-06
5.6118853e-05
-8.0769177e-05
1.1948628e-06
-3.4628825e-05
-9.7963696e-05
-9.1870031e-07
-9.6606216e-05
-4.1931349e-06
0.0001720437
2.9802823e-06
0.00011160467
3.3093047e-06
3.8912802e-05
5.6062098e-06
-3.3262506e-05
6.5934195e-06
5.4881402e-06
0.00055836115
-6.3953658e-05
2.7654668e-05
0.00043644101
-0.00023426425
2.0490227e-05
0.00023341786
-0.0003767937
1.1828152e-05
-2.0841898e-05
-0.00046420651
1.5504708e-06
-0.00047491148
-8.1122455e-06
0.00038805008
-4.3551284e-05
1.9085727e-05
0.00029391997
-0.00015707708
1.5379574e-05
0.00014601969
-0.00025176313
9.6541631e-06
-3.1535343e-05
-0.00030904929
2.7436488e-06
-0.00031426946
-2.7936905e-06
0.00027452289
-2.9576719e-05
1.3295955e-05
0.00019923611
-9.8605678e-05
1.2050838e-05
8.8738657e-05
-0.00015705641
8.8092446e-06
-3.6750687e-05
-0.00019179094
4.7164954e-06
-0.00019294507
9.3753318e-07
0.00020549283
-1.6432016e-05
9.4191454e-06
0.00014078549
-4.9504634e-05
1.0116993e-05
5.4005478e-05
-7.6356743e-05
9.9005543e-06
-3.7903108e-05
-9.0450782e-05
8.6881032e-06
-8.692485e-05
5.467628e-06
0.00017237274
6.5940822e-06
0.00011390162
9.601595e-06
3.9900081e-05
1.1726206e-05
-3.4367724e-05
1.1642034e-05
7.8577933e-06
0.00055119625
-7.2522169e-05
3.5113938e-05
0.00042777833
-0.00023937408
4.3984538e-05
0.00022313967
-0.00037896675
4.5623185e-05
-3.0505023e-05
-0.00046301167
3.9448289e-05
-0.00046958972
2.5378617e-05
0.00038434384
-4.9340549e-05
2.3978967e-05
0.00028819441
-0.00016040508
2.9099218e-05
0.00013910907
-0.00025260729
2.9253879e-05
-3.7072921e-05
-0.0003070756
2.5607208e-05
-0.00031053696
1.9423284e-05
0.00027327774
-3.3453214e-05
1.6363488e-05
0.00019599448
-0.00010053903
1.9652031e-05
8.4645895e-05
-0.00015596459
2.0441766e-05
-4.0529723e-05
-0.00018781888
1.9859351e-05
-0.00018841455
1.7721612e-05
0.00020619067
-1.9254983e-05
1.0016001e-05
0.00014056904
-5.0017428e-05
1.4804052e-05
5.2793033e-05
-7.4528252e-05
1.7853154e-05
-4.1123606e-05
-8.7494199e-05
1.8240732e-05
-8.4532911e-05
1.4639534e-05
0.00017538025
6.1440927e-06
0.00011602623
1.3327487e-05
3.9815918e-05
1.7503991e-05
-3.8151965e-05
1.6660175e-05
9.6937406e-06
0.00056006559
-8.3660231e-05
3.1161828e-05
0.00042941526
-0.0002542622
5.8346327e-05
0.00021696305
-0.00039533844
7.2817371e-05
-4.4575471e-05
-0.00047685391
7.5005474e-05
-0.00047554395
5.9991258e-05
0.00038946364
-5.6957084e-05
2.4050631e-05
0.00028834853
-0.00016985325
3.6959911e-05
0.00013546185
-0.00026142024
4.4458121e-05
-4.3257286e-05
-0.00031282381
4.7204471e-05
-0.00031223798
4.2582382e-05
0.00027656612
-3.9800963e-05
1.7225694e-05
0.00019678404
-0.00010538725
2.44765e-05
8.4063289e-05
-0.00015855338
3.0359536e-05
-4.2667635e-05
-0.00018943752
3.3562617e-05
-0.00019149632
3.2161748e-05
0.00021097866
-2.3124943e-05
8.4147946e-06
0.00014361809
-5.1490544e-05
1.7795595e-05
5.3180546e-05
-7.487305e-05
2.4373475e-05
-4.4724872e-05
-8.9070402e-05
2.4727888e-05
-8.9475575e-05
1.8402005e-05
0.00018256362
2.2191252e-06
0.00012020271
1.406493e-05
3.8972076e-05
2.0614366e-05
-4.5118425e-05
1.7868192e-05
6.3474365e-06
0.00058724806
-9.0776607e-05
0.00044388357
-0.00027565395
0.00021914876
-0.00042370287
-5.9590262e-05
-0.00050465919
-0.00049295481
0.00040237211
-6.3784219e-05
0.00029584568
-0.00018233902
0.00013820717
-0.00027552111
-4.7879709e-05
-0.00032646743
-0.00032265915
0.00028381667
-4.861261e-05
0.00020266673
-0.00011206905
8.7265999e-05
-0.00016454031
-4.4068684e-05
-0.00019827281
-0.0002052561
0.00022035938
-2.9319498e-05
0.00015019586
-5.5217486e-05
5.3534824e-05
-7.862678e-05
-5.1050844e-05
-9.5924924e-05
-0.00010152704
0.0001944094
0.00012675211
3.622585e-05
-5.6639223e-05
)
;

boundaryField
{
    movingWall
    {
        type            calculated;
        value           uniform 0;
    }
    CPLReceiveMD
    {
        type            calculated;
        value           nonuniform 0();
    }
    streamwiseIn
    {
        type            cyclic;
        value           nonuniform 0();
    }
    streamwiseOut
    {
        type            cyclic;
        value           nonuniform 0();
    }
    front
    {
        type            cyclic;
        value           nonuniform 0();
    }
    back
    {
        type            cyclic;
        value           nonuniform 0();
    }
    procBoundary16to7
    {
        type            processor;
        value           nonuniform List<scalar> 
25
(
1.5907576e-06
3.4718332e-05
6.0196803e-05
7.4529419e-05
7.2231205e-05
-3.3730525e-06
1.4876895e-05
2.9472589e-05
3.923208e-05
4.3498727e-05
-6.0475584e-06
5.4899953e-06
1.4443447e-05
2.0291966e-05
2.3945796e-05
-7.279468e-06
9.1411293e-07
7.3748405e-06
1.1382135e-05
1.1855751e-05
-8.2687949e-06
-1.4150053e-06
4.5949723e-06
8.0872487e-06
5.227573e-06
)
;
    }
    procBoundary16to13
    {
        type            processor;
        value           nonuniform List<scalar> 
25
(
8.1444805e-05
0.00035710721
0.00058358508
0.00072804529
0.00075115325
6.9615743e-05
0.00033336281
0.00054958101
0.00068780232
0.00070897747
7.3164965e-05
0.00033311502
0.00054460609
0.00067752432
0.00069271375
9.5905727e-05
0.00035445966
0.00056737244
0.00070054817
0.00070970429
0.00013385702
0.00039727429
0.00061609173
0.00075045486
0.00075480613
)
;
    }
    procBoundary16to15
    {
        type            processor;
        value           nonuniform List<scalar> 
25
(
-0.00062490342
-0.00043663708
-0.00031703888
-0.00024557995
-0.00021120128
-0.00061378445
-0.00042691925
-0.00030876415
-0.00023816405
-0.0002046043
-0.00061494143
-0.00042785359
-0.00030864121
-0.00023765173
-0.0002042983
-0.00062574139
-0.0004389718
-0.00031664283
-0.00024293613
-0.00020816738
-0.0006456388
-0.00046111464
-0.0003342069
-0.00025387808
-0.000213049
)
;
    }
    procBoundary16to17
    {
        type            processor;
        value           nonuniform List<scalar> 
25
(
-0.00027819724
-0.00019549369
-0.00014187763
-0.00010850634
-9.3818126e-05
-0.00028184735
-0.00019692575
-0.00013988952
-0.00010506217
-9.127264e-05
-0.0002934876
-0.00020446622
-0.00014478652
-0.00010896399
-9.3911358e-05
-0.00031348541
-0.0002182385
-0.00015465693
-0.0001163599
-9.9292651e-05
-0.00034232877
-0.00023856192
-0.00016933609
-0.00012645735
-0.00010550572
)
;
    }
    procBoundary16to25
    {
        type            processor;
        value           nonuniform List<scalar> 
25
(
2.0536651e-05
5.5206029e-05
7.6476002e-05
8.5008991e-05
7.7456577e-05
1.7927452e-06
2.9495824e-05
4.6122395e-05
5.1776737e-05
4.47267e-05
-3.0046283e-06
1.5362971e-05
2.926297e-05
3.5464227e-05
3.181616e-05
-1.580497e-07
9.7446353e-06
2.0607175e-05
2.7616828e-05
2.7750821e-05
4.4916056e-06
1.0475832e-05
1.8320231e-05
2.4293638e-05
2.5599863e-05
)
;
    }
}


// ************************************************************************* //
