/*--------------------------------*- C++ -*----------------------------------*\
| =========                 |                                                 |
| \\      /  F ield         | OpenFOAM: The Open Source CFD Toolbox           |
|  \\    /   O peration     | Version:  3.0.1                                 |
|   \\  /    A nd           | Web:      www.OpenFOAM.org                      |
|    \\/     M anipulation  |                                                 |
\*---------------------------------------------------------------------------*/
FoamFile
{
    version     2.0;
    format      ascii;
    class       volVectorField;
    location    "0.1";
    object      U;
}
// * * * * * * * * * * * * * * * * * * * * * * * * * * * * * * * * * * * * * //

dimensions      [0 1 -1 0 0 0 0];

internalField   nonuniform List<vector> 
125
(
(1.5026756e-06 -1.7386792e-07 1.6299499e-08)
(1.2869637e-06 -7.4389223e-07 -4.8719629e-08)
(8.7260936e-07 -1.2124645e-06 -1.0043469e-07)
(2.8759569e-07 -1.5082724e-06 -1.337687e-07)
(-3.6733801e-07 -1.5543853e-06 -1.3734324e-07)
(1.0418931e-06 -1.2172915e-07 1.4605402e-08)
(8.7602553e-07 -4.9588562e-07 -1.9246903e-08)
(5.7187145e-07 -8.0589193e-07 -5.0021014e-08)
(1.5509993e-07 -9.9595552e-07 -7.163877e-08)
(-2.812069e-07 -1.0181777e-06 -7.9545808e-08)
(7.4369066e-07 -8.5704032e-08 1.3180455e-08)
(6.0280089e-07 -3.2330998e-07 -5.4820559e-09)
(3.7253947e-07 -5.2569866e-07 -2.3038037e-08)
(7.5309936e-08 -6.4749387e-07 -3.6556362e-08)
(-2.1916659e-07 -6.5393602e-07 -4.5240523e-08)
(5.6546676e-07 -5.5620719e-08 1.3776341e-08)
(4.360309e-07 -1.8790509e-07 1.9077996e-09)
(2.4768756e-07 -3.0377298e-07 -7.7255598e-09)
(2.686257e-08 -3.7225073e-07 -1.5376542e-08)
(-1.7891837e-07 -3.7201795e-07 -2.0061342e-08)
(4.7905603e-07 -1.9587226e-08 1.4061227e-08)
(3.5456025e-07 -6.2960188e-08 5.9051865e-09)
(1.8814677e-07 -1.0094907e-07 1.2638114e-09)
(7.0628558e-09 -1.2243922e-07 -1.8674986e-09)
(-1.5885057e-07 -1.2074217e-07 3.2560506e-10)
(1.4651689e-06 -1.6698578e-07 5.2857597e-08)
(1.2434925e-06 -7.0954823e-07 2.0294637e-08)
(8.373283e-07 -1.1579605e-06 -1.039741e-08)
(2.6573115e-07 -1.4399725e-06 -3.8660679e-08)
(-3.7834863e-07 -1.4797982e-06 -5.7186471e-08)
(1.0187064e-06 -1.3439841e-07 3.4246592e-08)
(8.5245814e-07 -4.8918829e-07 1.8574775e-08)
(5.4992512e-07 -7.8569391e-07 -1.1105957e-09)
(1.4310822e-07 -9.6654821e-07 -1.9166197e-08)
(-2.8557078e-07 -9.8643931e-07 -2.8661463e-08)
(7.2910688e-07 -9.1417001e-08 2.2240996e-08)
(5.9219699e-07 -3.1961056e-07 1.6444311e-08)
(3.5996838e-07 -5.1102793e-07 6.0285362e-09)
(6.4985754e-08 -6.260471e-07 -5.2945883e-09)
(-2.2079811e-07 -6.34008e-07 -1.4134956e-08)
(5.545704e-07 -5.751595e-08 1.6450935e-08)
(4.3284722e-07 -1.8514891e-07 1.5696775e-08)
(2.4348858e-07 -2.9178118e-07 1.3868926e-08)
(2.0128139e-08 -3.5281717e-07 9.7117205e-09)
(-1.7870578e-07 -3.4984927e-07 1.5934855e-09)
(4.7122103e-07 -2.0537883e-08 1.1967827e-08)
(3.5784267e-07 -6.1873595e-08 1.6138448e-08)
(1.9225203e-07 -9.5434432e-08 2.1665364e-08)
(6.9154756e-09 -1.1304945e-07 2.2794279e-08)
(-1.5705012e-07 -1.0864217e-07 1.6682545e-08)
(1.4576579e-06 -1.8213269e-07 7.8460241e-08)
(1.2237087e-06 -7.1562665e-07 8.0591667e-08)
(8.1365405e-07 -1.1544597e-06 7.1811367e-08)
(2.4080663e-07 -1.4256352e-06 5.1244869e-08)
(-4.0497881e-07 -1.4528248e-06 2.1578991e-08)
(1.0152409e-06 -1.5234575e-07 5.3830385e-08)
(8.4066835e-07 -4.9973595e-07 5.5597485e-08)
(5.3413048e-07 -7.8946599e-07 4.8633754e-08)
(1.2754906e-07 -9.6258943e-07 3.5437178e-08)
(-3.0191835e-07 -9.7512617e-07 2.0785632e-08)
(7.273965e-07 -1.0349969e-07 3.7074038e-08)
(5.8658843e-07 -3.2618798e-07 3.9628093e-08)
(3.5080057e-07 -5.1071914e-07 3.6563151e-08)
(5.5146444e-08 -6.1861595e-07 3.0719199e-08)
(-2.3164306e-07 -6.2368108e-07 2.3323406e-08)
(5.5480219e-07 -6.5891058e-08 2.4293807e-08)
(4.3344889e-07 -1.8820722e-07 3.1151077e-08)
(2.4170251e-07 -2.8813109e-07 3.4691852e-08)
(1.458713e-08 -3.4415649e-07 3.3660774e-08)
(-1.8760859e-07 -3.4119648e-07 2.5133744e-08)
(4.7459787e-07 -2.40662e-08 1.5922661e-08)
(3.6425779e-07 -6.2514579e-08 2.8661248e-08)
(1.948026e-07 -9.3149175e-08 3.6537617e-08)
(2.080037e-09 -1.0935426e-07 3.5377642e-08)
(-1.6507877e-07 -1.0565271e-07 2.1939339e-08)
(1.4822447e-06 -2.2447421e-07 8.2848096e-08)
(1.2368436e-06 -7.6091122e-07 1.2791516e-07)
(8.079815e-07 -1.2033751e-06 1.4804958e-07)
(2.1549877e-07 -1.4717113e-06 1.4306316e-07)
(-4.4756661e-07 -1.4815038e-06 1.0670576e-07)
(1.0355385e-06 -1.7578462e-07 6.0038001e-08)
(8.4726151e-07 -5.3015186e-07 8.2574568e-08)
(5.2976481e-07 -8.2094213e-07 9.2139645e-08)
(1.152601e-07 -9.8707388e-07 9.1012887e-08)
(-3.2686503e-07 -9.8469489e-07 7.7504285e-08)
(7.4150904e-07 -1.2095358e-07 4.1986805e-08)
(5.916861e-07 -3.4405697e-07 5.5160958e-08)
(3.5105949e-07 -5.2496983e-07 6.3501624e-08)
(5.1746009e-08 -6.278235e-07 6.677698e-08)
(-2.4665376e-07 -6.2965989e-07 6.2353265e-08)
(5.6739269e-07 -7.8663386e-08 2.3038593e-08)
(4.4324526e-07 -1.9610869e-07 4.0749671e-08)
(2.4599828e-07 -2.9179772e-07 5.2783311e-08)
(1.0570031e-08 -3.4815004e-07 5.3710634e-08)
(-2.0135516e-07 -3.51228e-07 4.1301601e-08)
(4.8841343e-07 -2.8902965e-08 1.0454056e-08)
(3.7845763e-07 -6.4355659e-08 3.4240569e-08)
(1.9896843e-07 -9.3580036e-08 4.7647968e-08)
(-7.6828022e-09 -1.1132422e-07 4.316042e-08)
(-1.805135e-07 -1.1183031e-07 2.0051349e-08)
(1.5410964e-06 -2.8079807e-07 6.4630864e-08)
(1.2889101e-06 -8.4115522e-07 1.419483e-07)
(8.2880205e-07 -1.2997118e-06 1.8662305e-07)
(1.9946281e-07 -1.5688315e-06 2.0002127e-07)
(-5.0239305e-07 -1.5596288e-06 1.7180922e-07)
(1.0793535e-06 -1.9320704e-07 3.2307411e-08)
(8.7276999e-07 -5.7249015e-07 8.3073592e-08)
(5.425688e-07 -8.7401395e-07 1.1322925e-07)
(1.129137e-07 -1.0388756e-06 1.237286e-07)
(-3.5804886e-07 -1.0194787e-06 1.0913641e-07)
(7.7252766e-07 -1.404991e-07 1.7777558e-08)
(6.0810325e-07 -3.6801288e-07 4.9800948e-08)
(3.6241659e-07 -5.5007547e-07 7.4529675e-08)
(5.3998084e-08 -6.5591821e-07 8.6284485e-08)
(-2.6675463e-07 -6.5988376e-07 7.9972426e-08)
(5.9279617e-07 -9.7421071e-08 1.0321398e-08)
(4.6319361e-07 -2.0911887e-07 3.4425951e-08)
(2.5466347e-07 -3.0397264e-07 5.6226483e-08)
(3.1054192e-09 -3.6776212e-07 6.5431325e-08)
(-2.2188468e-07 -3.8349337e-07 5.7691079e-08)
(5.0932275e-07 -3.6645013e-08 8.3885974e-09)
(4.014517e-07 -6.9013536e-08 3.0676226e-08)
(2.0372245e-07 -9.8271376e-08 4.8668536e-08)
(-2.5516583e-08 -1.198911e-07 5.2702489e-08)
(-2.0268094e-07 -1.2689267e-07 3.9934163e-08)
)
;

boundaryField
{
    movingWall
    {
        type            fixedValue;
        value           uniform (0 0 0);
    }
    CPLReceiveMD
    {
        type            fixedValue;
        value           nonuniform 0();
    }
    streamwiseIn
    {
        type            cyclic;
    }
    streamwiseOut
    {
        type            cyclic;
    }
    front
    {
        type            cyclic;
    }
    back
    {
        type            cyclic;
    }
    procBoundary16to7
    {
        type            processor;
        value           nonuniform List<vector> 
25
(
(1.5905893e-06 -1.8748993e-07 -6.4167436e-09)
(1.3602267e-06 -7.9023491e-07 -9.6972393e-08)
(9.2237737e-07 -1.283751e-06 -1.5910886e-07)
(3.0263971e-07 -1.5918662e-06 -1.8929852e-07)
(-4.0648139e-07 -1.6440575e-06 -1.8587563e-07)
(1.09386e-06 -1.3127937e-07 9.743611e-09)
(9.1708456e-07 -5.3242586e-07 -4.6620416e-08)
(6.0231699e-07 -8.6309056e-07 -8.5000603e-08)
(1.7263301e-07 -1.0637605e-06 -1.0561899e-07)
(-3.0628898e-07 -1.078542e-06 -1.0783362e-07)
(7.7519747e-07 -9.0587939e-08 1.7733864e-08)
(6.2841548e-07 -3.4076526e-07 -2.1180338e-08)
(3.9104269e-07 -5.5332338e-07 -4.9820107e-08)
(8.718824e-08 -6.8230932e-07 -6.7311933e-08)
(-2.2611111e-07 -6.9349247e-07 -7.1453224e-08)
(5.8616127e-07 -5.8400029e-08 1.9899824e-08)
(4.5434912e-07 -1.9653727e-07 -8.928369e-09)
(2.6077292e-07 -3.1608288e-07 -3.502247e-08)
(3.2463921e-08 -3.8750507e-07 -5.3771661e-08)
(-1.7144733e-07 -3.9541505e-07 -5.9257919e-08)
(4.9446595e-07 -2.0826237e-08 2.133849e-08)
(3.7064009e-07 -6.5871492e-08 -4.4900759e-09)
(2.0002472e-07 -1.0442191e-07 -3.1258074e-08)
(7.853682e-09 -1.2655469e-07 -5.0784232e-08)
(-1.4262253e-07 -1.2902413e-07 -5.459246e-08)
)
;
    }
    procBoundary16to13
    {
        type            processor;
        value           nonuniform List<vector> 
25
(
(2.1995078e-06 -2.1893644e-07 -5.8987496e-09)
(1.9146221e-06 -1.061235e-06 -9.9933583e-08)
(1.3362516e-06 -1.7570313e-06 -1.7581153e-07)
(4.9702081e-07 -2.2151837e-06 -2.2353252e-07)
(-4.8068755e-07 -2.3325302e-06 -2.4380509e-07)
(2.1063021e-06 -2.0021785e-07 4.2511358e-08)
(1.8434329e-06 -9.8454311e-07 -9.6908104e-09)
(1.2803494e-06 -1.6504205e-06 -5.9115398e-08)
(4.649459e-07 -2.0967913e-06 -1.0180344e-07)
(-4.7943596e-07 -2.2087823e-06 -1.3022202e-07)
(2.0710914e-06 -2.2129908e-07 1.1131881e-07)
(1.8129953e-06 -9.8363591e-07 1.0696048e-07)
(1.244139e-06 -1.6348971e-06 9.4048384e-08)
(4.2591419e-07 -2.0680009e-06 6.7176002e-08)
(-5.1576747e-07 -2.1592533e-06 2.2491228e-08)
(2.101087e-06 -2.9457456e-07 1.5870338e-07)
(1.8261624e-06 -1.0613245e-06 2.0810314e-07)
(1.2405649e-06 -1.7206651e-06 2.3739183e-07)
(3.9338874e-07 -2.1546427e-06 2.3420922e-07)
(-5.8821731e-07 -2.2200791e-06 1.843083e-07)
(2.2060561e-06 -4.1382568e-07 1.4836318e-07)
(1.8916838e-06 -1.2053312e-06 2.6047956e-07)
(1.2702451e-06 -1.9014556e-06 3.4697031e-07)
(3.7283066e-07 -2.3493331e-06 3.7365516e-07)
(-6.7866192e-07 -2.3909952e-06 3.2202735e-07)
)
;
    }
    procBoundary16to15
    {
        type            processor;
        value           nonuniform List<vector> 
25
(
(1.4982268e-06 4.1372243e-07 7.6700733e-08)
(1.0563575e-06 2.6309927e-07 5.5906685e-08)
(7.74134e-07 1.5311638e-07 4.0608536e-08)
(6.0547326e-07 7.6610169e-08 3.3498665e-08)
(5.2475124e-07 2.3309431e-08 2.9150106e-08)
(1.4599497e-06 3.7804749e-07 6.5312281e-08)
(1.027235e-06 2.4687375e-07 4.522703e-08)
(7.4939751e-07 1.4452544e-07 3.2738478e-08)
(5.8250511e-07 7.2619676e-08 2.6361341e-08)
(5.0171195e-07 2.133739e-08 2.0596605e-08)
(1.4559538e-06 3.402239e-07 6.3515854e-08)
(1.0266571e-06 2.3052546e-07 3.8765369e-08)
(7.4912885e-07 1.3425069e-07 2.7225936e-08)
(5.8141502e-07 6.4473403e-08 1.832879e-08)
(5.0027017e-07 1.75513e-08 1.1468852e-08)
(1.4897186e-06 3.0463727e-07 4.4476647e-08)
(1.0543702e-06 2.1058383e-07 1.8461933e-08)
(7.707956e-07 1.2408886e-07 1.0029796e-08)
(5.9842269e-07 5.6865481e-08 2.7556974e-09)
(5.1539137e-07 1.4482018e-08 -4.843049e-10)
(1.5575119e-06 2.8554742e-07 4.5056259e-09)
(1.1098453e-06 1.9607861e-07 -6.3088673e-09)
(8.1389964e-07 1.1854445e-07 -1.6477911e-08)
(6.3151149e-07 5.3959271e-08 -3.0229263e-08)
(5.4275431e-07 1.4311944e-08 -3.8959373e-08)
)
;
    }
    procBoundary16to17
    {
        type            processor;
        value           nonuniform List<vector> 
25
(
(-9.9325308e-07 -1.3087918e-06 -1.0563594e-07)
(-6.8147159e-07 -8.4778409e-07 -5.0920573e-08)
(-4.6734913e-07 -5.4520534e-07 -3.1243365e-08)
(-3.2415221e-07 -3.1197369e-07 -2.2634994e-08)
(-2.5026741e-07 -1.0241611e-07 -1.6295088e-08)
(-9.7244412e-07 -1.2461073e-06 -7.6301476e-08)
(-6.6706047e-07 -8.0899769e-07 -3.9877641e-08)
(-4.5619448e-07 -5.191821e-07 -1.7771067e-08)
(-3.2197162e-07 -2.8910752e-07 1.0215001e-09)
(-2.6107654e-07 -9.1438395e-08 1.6566076e-08)
(-9.9250922e-07 -1.211786e-06 -1.7973112e-08)
(-6.779412e-07 -7.8925368e-07 -5.85707e-09)
(-4.6498523e-07 -5.043062e-07 4.8635522e-09)
(-3.3435811e-07 -2.7763249e-07 1.10114e-08)
(-2.7623234e-07 -8.6871227e-08 1.1914265e-08)
(-1.0497565e-06 -1.210359e-06 4.5648919e-08)
(-7.1387295e-07 -7.8616103e-07 3.4882373e-08)
(-4.9191854e-07 -5.0231363e-07 3.166542e-08)
(-3.5694726e-07 -2.8205404e-07 1.9434551e-08)
(-2.9441351e-07 -9.0532751e-08 5.5582576e-09)
(-1.134451e-06 -1.2482184e-06 1.0615732e-07)
(-7.699726e-07 -8.0323718e-07 7.1394648e-08)
(-5.3214855e-07 -5.1975402e-07 5.4113202e-08)
(-3.8286424e-07 -3.0373851e-07 3.4221365e-08)
(-3.0741425e-07 -1.0074268e-07 1.6794896e-08)
)
;
    }
    procBoundary16to25
    {
        type            processor;
        value           nonuniform List<vector> 
25
(
(1.6196874e-06 -3.4052998e-07 3.5632132e-08)
(1.3588358e-06 -9.3831718e-07 1.2863396e-07)
(8.6605447e-07 -1.4371162e-06 1.9573568e-07)
(2.0068495e-07 -1.7216379e-06 2.2294607e-07)
(-5.4143056e-07 -1.6943947e-06 2.0541018e-07)
(1.124921e-06 -2.2263792e-07 -1.556582e-09)
(9.2818335e-07 -6.2229921e-07 6.4271292e-08)
(5.7041982e-07 -9.330355e-07 1.1268734e-07)
(1.1116726e-07 -1.1008107e-06 1.3326729e-07)
(-3.7919898e-07 -1.0765317e-06 1.2037537e-07)
(8.077879e-07 -1.4293959e-07 -2.3456723e-08)
(6.4843822e-07 -3.9270461e-07 2.8622121e-08)
(3.8754302e-07 -5.819726e-07 6.8199255e-08)
(5.718876e-08 -6.8612078e-07 8.8860543e-08)
(-2.7882504e-07 -6.8110523e-07 8.7567249e-08)
(6.320479e-07 -8.8049967e-08 -2.837341e-08)
(4.8915035e-07 -2.1522529e-07 9.4264059e-09)
(2.7700365e-07 -3.1764615e-07 4.2460698e-08)
(1.2034627e-08 -3.8171837e-07 6.6740181e-08)
(-2.3256512e-07 -3.9125603e-07 8.0135019e-08)
(5.5804903e-07 -3.0833223e-08 -2.2978026e-08)
(4.1873757e-07 -6.8096813e-08 3.7101107e-09)
(2.2099469e-07 -1.0112397e-07 3.1080316e-08)
(-1.6417175e-08 -1.2403675e-07 5.7058574e-08)
(-2.1642109e-07 -1.2957285e-07 7.9357218e-08)
)
;
    }
}


// ************************************************************************* //
