/*--------------------------------*- C++ -*----------------------------------*\
| =========                 |                                                 |
| \\      /  F ield         | OpenFOAM: The Open Source CFD Toolbox           |
|  \\    /   O peration     | Version:  3.0.1                                 |
|   \\  /    A nd           | Web:      www.OpenFOAM.org                      |
|    \\/     M anipulation  |                                                 |
\*---------------------------------------------------------------------------*/
FoamFile
{
    version     2.0;
    format      ascii;
    class       surfaceScalarField;
    location    "0.2";
    object      phi;
}
// * * * * * * * * * * * * * * * * * * * * * * * * * * * * * * * * * * * * * //

dimensions      [0 3 -1 0 0 0 0];

internalField   nonuniform List<scalar> 
300
(
-0.012797786
0.0013198868
0.0044914121
-0.0099492532
0.0053400195
0.0062136232
-0.0047663959
0.0088824633
0.0067486068
0.0021564209
0.010853158
0.006152915
0.010134013
0.0043707244
-0.0087622573
0.0012153439
0.0025458494
-0.0064592135
0.0040691426
0.003591953
-0.0028626965
0.0062785206
0.0039053965
0.0014353136
0.0073364909
0.0035315696
0.0068610797
0.0025672381
-0.0059052255
0.00093996323
0.0014481089
-0.0042676533
0.0028900163
0.0020463028
-0.0018297878
0.0043238401
0.0022397907
0.00095428323
0.0049555548
0.0020264298
0.0046346363
0.0014826241
-0.0039559631
0.0006552959
0.00082598895
-0.0028416156
0.001971699
0.0011623633
-0.0012080707
0.0029210779
0.0012749
0.00062999264
0.003323499
0.0011572153
0.0031170329
0.00085376698
-0.0026410708
0.00047498034
-0.0018954828
0.00066578693
-0.0008099033
0.00072810622
0.00042162995
0.00066510326
0.00049970501
-0.011069577
-0.00061390948
0.0027630265
-0.0093998956
0.0027346729
0.0036282227
-0.0053842835
0.0060175498
0.0039078806
0.00037071308
0.0082028925
0.0035825354
0.0083092356
0.0025834855
-0.0077135249
0.0001216157
0.0016381388
-0.0061436055
0.0025283715
0.0022196146
-0.003238222
0.0046084698
0.0023884247
0.00046893772
0.0058220133
0.0021736438
0.0057683948
0.0015916313
-0.0053057727
0.00031993249
0.0009560456
-0.0040742704
0.0020072212
0.0013195549
-0.0020421544
0.0033581444
0.0014255119
0.0004102099
0.0040829367
0.0012940981
0.0040025124
0.00096616657
-0.003619191
0.00030561253
0.00055144987
-0.0027288905
0.0014757377
0.0007707665
-0.0013252898
0.0023736864
0.00083977032
0.00032684137
0.002830224
0.00076709897
0.0027610558
0.00057884789
-0.0024501526
0.00032805313
-0.0018331943
0.00045349098
-0.0008729303
0.00049617718
0.00025605628
0.00045206913
0.00032996116
-0.010195661
-0.0017299679
0.001162795
-0.0091237106
0.0013361263
0.0010342066
-0.0056647174
0.0044964834
0.00089881787
-0.00067523836
0.0067380566
0.00082356054
0.0073093052
0.00064754673
-0.0071290783
-0.00055710818
0.00071897656
-0.005974928
0.001631792
0.00075774708
-0.0034517294
0.0036446169
0.00070785198
-0.00011191216
0.0049371115
0.00060968634
0.0051378189
0.00045821579
-0.0049410984
-8.3230908e-05
0.0004215951
-0.0039680448
0.0014598029
0.00049257963
-0.0021741606
0.0027724224
0.00048097479
8.445172e-05
0.0035550435
0.0004197641
0.0036124056
0.00031990598
-0.0033993432
8.2738239e-05
0.00024605315
-0.0026597511
0.0011587866
0.00030355086
-0.00139832
0.0020301934
0.00030811955
0.00013922368
0.0025150804
0.00027268575
0.0025140091
0.00020263757
-0.0023244937
0.00015329741
-0.0017904035
0.00019297493
-0.00091703674
0.00019536552
0.00013662774
0.00016230109
0.00010011868
-0.010279616
-0.0021439323
-0.00022992606
-0.009255579
0.0010660343
-0.0011632882
-0.0057423535
0.0043069314
-0.0017428268
-0.00085322696
0.0065249155
-0.001776421
0.0071208875
-0.001270027
-0.0070766845
-0.00084319653
-0.00012134083
-0.0060232751
0.0013694625
-0.00057188742
-0.0035503617
0.0034188427
-0.00086936362
-0.00026405406
0.0047484469
-0.00090140255
0.0050005023
-0.00067501723
-0.0048682115
-0.00025776217
-6.8070128e-05
-0.0039789934
0.0012721398
-0.00029908447
-0.002235531
0.00260151
-0.00044549208
-1.5475498e-05
0.0034088429
-0.00045841407
0.0034957712
-0.00035546441
-0.0033411537
-1.0057611e-05
-3.0567209e-05
-0.0026549147
0.0010485065
-0.00015306755
-0.0014337911
0.0019174205
-0.00022885674
6.9267482e-05
0.0024050284
-0.00024280736
0.0024117021
-0.00020888746
-0.0022843444
-1.2682457e-05
-0.0017878479
-7.2436546e-05
-0.00095007597
-0.0001210213
7.4431785e-05
-0.00014565362
-0.00015212022
-0.011207278
-0.0020397357
-0.0098263775
0.0016612213
-0.0057735693
0.0052009426
-0.00035109058
0.0074121551
0.0077252962
-0.0075254507
-0.00079227998
-0.0063176578
0.0016438882
-0.0035818797
0.0038534174
-3.9402074e-05
0.0051983038
0.0053250273
-0.0050984628
-0.00022137798
-0.0041245574
0.0014188378
-0.0022486646
0.0028222291
8.6497805e-05
0.0036279535
0.0036451162
-0.0034634165
7.2708404e-06
-0.0027303627
0.0011293855
-0.0014479791
0.0020273709
0.00010252185
0.0025037146
0.0024707884
-0.0023439144
-0.0018362471
-0.00097478087
6.7872052e-05
)
;

boundaryField
{
    movingWall
    {
        type            calculated;
        value           nonuniform 0();
    }
    CPLReceiveMD
    {
        type            calculated;
        value           nonuniform 0();
    }
    streamwiseIn
    {
        type            cyclic;
        value           nonuniform 0();
    }
    streamwiseOut
    {
        type            cyclic;
        value           nonuniform 0();
    }
    front
    {
        type            cyclic;
        value           nonuniform 0();
    }
    back
    {
        type            cyclic;
        value           nonuniform 0();
    }
    procBoundary14to5
    {
        type            processor;
        value           nonuniform List<scalar> 
25
(
-0.0062064023
-0.0084775267
-0.0088363084
-0.0076720878
-0.0052999997
-0.0032847587
-0.0046276124
-0.0049313906
-0.0043383853
-0.0030805429
-0.0017657407
-0.0025251608
-0.0027404322
-0.0024529822
-0.0017883821
-0.00095671479
-0.0013896957
-0.0015302841
-0.0013941751
-0.0010487669
-0.00048121583
-0.00075263713
-0.00085783367
-0.00080658024
-0.00064625452
)
;
    }
    procBoundary14to11
    {
        type            processor;
        value           nonuniform List<scalar> 
25
(
-0.00082915795
-0.0058789915
-0.011967233
-0.01617475
-0.015002749
0.0025205618
-0.0018099378
-0.0071945637
-0.011416465
-0.01201744
0.0043945739
0.00015989489
-0.0049262146
-0.0089728239
-0.010637803
0.0049490672
4.2051768e-05
-0.0051806483
-0.0088173944
-0.010301666
0.0046263684
-0.0013276757
-0.0071271167
-0.010614518
-0.011221407
)
;
    }
    procBoundary14to12throughstreamwiseOut
    {
        type            processorCyclic;
        value           nonuniform List<scalar> 
25
(
0.0081033752
0.0052365925
0.0034378757
0.0022686128
0.0014869931
0.0058605504
0.0039914977
0.0027474263
0.0018900154
0.0012890888
0.0044654691
0.0032114182
0.002296775
0.0016338416
0.001154556
0.0041411198
0.0029971583
0.0021546586
0.0015501946
0.0011274509
0.0047714688
0.0033090847
0.0023260056
0.0016653531
0.0012365659
)
;
    }
    procBoundary14to13
    {
        type            processor;
        value           nonuniform List<scalar> 
25
(
0.013934196
0.0095920514
0.0064981866
0.0043772143
0.0029781832
0.010795022
0.0078489401
0.0055328153
0.0038300912
0.0026435563
0.0090854764
0.0068140991
0.0049244739
0.0034791843
0.0024276426
0.0087805449
0.0065390762
0.0047257459
0.0033536225
0.0023476676
0.0096874447
0.0069463909
0.0049016844
0.0034239462
0.0023762772
)
;
    }
    procBoundary14to17
    {
        type            processor;
        value           nonuniform List<scalar> 
25
(
0.00052004695
0.0013511918
0.001945643
0.002182394
0.0020092686
0.00028496971
0.0010595535
0.0016423178
0.0019208152
0.0018317222
0.00014110262
0.00086987374
0.0014388948
0.0017402954
0.0017096262
8.1377489e-05
0.00079820411
0.0013666021
0.0016794783
0.0016841809
7.688793e-05
0.00082853037
0.0014207247
0.0017500746
0.0017869508
)
;
    }
    procBoundary14to23
    {
        type            processor;
        value           nonuniform List<scalar> 
25
(
-0.0012419567
-0.0029666406
-0.0040670817
-0.0041321996
-0.0030754093
-0.00085128309
-0.0017195297
-0.0022590981
-0.0022558709
-0.0017162474
-0.00057588298
-0.0010065223
-0.001265323
-0.0012441802
-0.00094421346
-0.00037111622
-0.00059198018
-0.0007155227
-0.00068775481
-0.00049725867
-0.00023010701
-0.00034908866
-0.00040775942
-0.00036834178
-0.00021582895
)
;
    }
}


// ************************************************************************* //
