/*--------------------------------*- C++ -*----------------------------------*\
| =========                 |                                                 |
| \\      /  F ield         | OpenFOAM: The Open Source CFD Toolbox           |
|  \\    /   O peration     | Version:  3.0.1                                 |
|   \\  /    A nd           | Web:      www.OpenFOAM.org                      |
|    \\/     M anipulation  |                                                 |
\*---------------------------------------------------------------------------*/
FoamFile
{
    version     2.0;
    format      ascii;
    class       volVectorField;
    location    "0.2";
    object      U;
}
// * * * * * * * * * * * * * * * * * * * * * * * * * * * * * * * * * * * * * //

dimensions      [0 1 -1 0 0 0 0];

internalField   nonuniform List<vector> 
125
(
(-3.3295291e-05 2.777238e-06 1.3363328e-05)
(-2.8492746e-05 1.420146e-05 1.8360645e-05)
(-1.8520675e-05 2.6094086e-05 1.9518743e-05)
(-3.3460838e-06 3.3622701e-05 1.7311421e-05)
(1.2820068e-05 3.1323481e-05 1.2114333e-05)
(-2.2941483e-05 3.2112689e-06 7.2841274e-06)
(-1.9055963e-05 1.1825116e-05 1.0273406e-05)
(-1.1703773e-05 1.897184e-05 1.1054305e-05)
(-1.8219129e-06 2.2699578e-05 9.8492451e-06)
(8.3311213e-06 2.1204186e-05 7.0704844e-06)
(-1.5508675e-05 2.7131184e-06 4.0150073e-06)
(-1.2732176e-05 8.7237357e-06 5.7136362e-06)
(-7.6462141e-06 1.326265e-05 6.227546e-06)
(-1.1137389e-06 1.5352293e-05 5.6039756e-06)
(5.4839812e-06 1.4351304e-05 4.0942438e-06)
(-1.0419932e-05 2.0032992e-06 2.227428e-06)
(-8.5064311e-06 6.086403e-06 3.1893673e-06)
(-5.0752162e-06 9.0594044e-06 3.5083745e-06)
(-7.3325993e-07 1.0343957e-05 3.1911381e-06)
(3.6189377e-06 9.6818988e-06 2.3809307e-06)
(-7.0265393e-06 1.4743425e-06 1.1949926e-06)
(-5.6760708e-06 4.1573272e-06 1.7729818e-06)
(-3.3886599e-06 6.0847359e-06 1.9829801e-06)
(-4.9124459e-07 6.8804738e-06 1.8400338e-06)
(2.3828701e-06 6.4044457e-06 1.4328767e-06)
(-2.7293452e-05 -3.8698693e-06 9.0553875e-06)
(-2.5635895e-05 5.7692192e-06 1.2299844e-05)
(-1.8573847e-05 1.6565327e-05 1.3351701e-05)
(-6.3326626e-06 2.4503148e-05 1.2261379e-05)
(7.7773541e-06 2.5379594e-05 8.7204078e-06)
(-1.9457352e-05 -5.8986167e-07 5.2234784e-06)
(-1.7347587e-05 6.6163841e-06 7.2630134e-06)
(-1.1770092e-05 1.3306155e-05 7.8725207e-06)
(-3.493317e-06 1.7523184e-05 7.1455868e-06)
(5.5670673e-06 1.7582127e-05 5.2127488e-06)
(-1.3553333e-05 5.6566203e-07 3.0013024e-06)
(-1.1739878e-05 5.6864209e-06 4.2059979e-06)
(-7.6670474e-06 9.9691721e-06 4.5817865e-06)
(-2.0566916e-06 1.237692e-05 4.1544624e-06)
(3.9414955e-06 1.2205167e-05 3.0682253e-06)
(-9.315171e-06 7.8919268e-07 1.7197324e-06)
(-7.9440771e-06 4.3614512e-06 2.4152862e-06)
(-5.0795934e-06 7.1695683e-06 2.6431606e-06)
(-1.2573222e-06 8.6392412e-06 2.4066239e-06)
(2.7672612e-06 8.449744e-06 1.7939119e-06)
(-6.3696333e-06 7.4206051e-07 1.0034469e-06)
(-5.3595026e-06 3.1724946e-06 1.398831e-06)
(-3.3892574e-06 5.0222604e-06 1.5302139e-06)
(-7.7651596e-07 5.9374892e-06 1.396606e-06)
(1.9286623e-06 5.7381974e-06 1.0410859e-06)
(-2.4106476e-05 -7.6308157e-06 4.8481973e-06)
(-2.4196433e-05 1.5116201e-06 5.8224536e-06)
(-1.855914e-05 1.1842288e-05 6.0079499e-06)
(-7.9773781e-06 1.9647223e-05 5.5773162e-06)
(4.7237748e-06 2.2426727e-05 4.0501377e-06)
(-1.7437024e-05 -2.8428163e-06 2.9283183e-06)
(-1.6406921e-05 3.7312698e-06 3.7189683e-06)
(-1.18212e-05 1.0201925e-05 3.8696383e-06)
(-4.4816851e-06 1.4592661e-05 3.4840066e-06)
(3.8664359e-06 1.5552003e-05 2.5692881e-06)
(-1.2337779e-05 -7.9062766e-07 1.7190815e-06)
(-1.1151692e-05 3.8760084e-06 2.2641406e-06)
(-7.6977496e-06 8.0332902e-06 2.3827455e-06)
(-2.6273001e-06 1.061333e-05 2.1425375e-06)
(2.9712634e-06 1.0932467e-05 1.6105598e-06)
(-8.6021563e-06 5.4436957e-09 9.9557389e-07)
(-7.583003e-06 3.2792361e-06 1.3424798e-06)
(-5.0838785e-06 6.0078318e-06 1.4346433e-06)
(-1.5825086e-06 7.5861008e-06 1.2995084e-06)
(2.2126965e-06 7.6547593e-06 9.775942e-07)
(-5.9429118e-06 2.8313839e-07 6.0095574e-07)
(-5.1493038e-06 2.5386031e-06 8.0766667e-07)
(-3.3908849e-06 4.3381462e-06 8.6405864e-07)
(-9.8037258e-07 5.317864e-06 7.6777332e-07)
(1.6113537e-06 5.2770955e-06 5.4136151e-07)
(-2.3845315e-05 -8.8464595e-06 1.1143734e-06)
(-2.4476142e-05 1.3002763e-06 -1.6893602e-07)
(-1.8818985e-05 1.1926156e-05 -1.0615328e-06)
(-8.2904751e-06 1.9179443e-05 -1.1986264e-06)
(4.0989797e-06 2.1770378e-05 -7.8599147e-07)
(-1.7031791e-05 -3.7189775e-06 7.3229371e-07)
(-1.6406267e-05 3.058071e-06 2.2866802e-07)
(-1.2005054e-05 9.6809511e-06 -2.0524995e-07)
(-4.7936673e-06 1.4088406e-05 -3.6892448e-07)
(3.4093606e-06 1.5142549e-05 -2.7654629e-07)
(-1.2000009e-05 -1.3670823e-06 4.4086954e-07)
(-1.1076214e-05 3.3099324e-06 2.4098157e-07)
(-7.7886506e-06 7.5341772e-06 4.278682e-08)
(-2.8288774e-06 1.0192422e-05 -5.1104306e-08)
(2.6689975e-06 1.0613473e-05 -4.8910305e-08)
(-8.3732827e-06 -3.2893311e-07 2.6898658e-07)
(-7.5050076e-06 2.9049772e-06 1.8766544e-07)
(-5.1225648e-06 5.6508814e-06 9.8273551e-08)
(-1.7143713e-06 7.264477e-06 3.5922373e-08)
(2.0210422e-06 7.3805457e-06 -1.085397e-08)
(-5.793223e-06 9.2653897e-08 1.7532439e-07)
(-5.0963998e-06 2.3105864e-06 1.503726e-07)
(-3.4291508e-06 4.1046294e-06 9.267124e-08)
(-1.0992131e-06 5.1034114e-06 2.0567395e-08)
(1.499751e-06 5.1166328e-06 -6.5925541e-08)
(-2.6150449e-05 -8.2976156e-06 -1.8303958e-06)
(-2.6372339e-05 3.748422e-06 -5.166678e-06)
(-1.9588831e-05 1.5397326e-05 -7.2789819e-06)
(-7.7018368e-06 2.2506331e-05 -7.4088753e-06)
(5.53399e-06 2.3654587e-05 -5.4562178e-06)
(-1.8107322e-05 -3.5163201e-06 -1.2115135e-06)
(-1.7344464e-05 4.1411875e-06 -2.865952e-06)
(-1.2418792e-05 1.1306245e-05 -3.9171025e-06)
(-4.5529815e-06 1.5740183e-05 -3.9568807e-06)
(4.0837084e-06 1.6289085e-05 -2.9999607e-06)
(-1.2510059e-05 -1.2539348e-06 -8.0302817e-07)
(-1.1549775e-05 3.8350058e-06 -1.6322136e-06)
(-7.9898355e-06 8.3368137e-06 -2.1413801e-06)
(-2.7189972e-06 1.1018177e-05 -2.1328229e-06)
(3.0113813e-06 1.1198159e-05 -1.6292595e-06)
(-8.6151988e-06 -2.6010145e-07 -5.0107124e-07)
(-7.753716e-06 3.1886271e-06 -9.3152046e-07)
(-5.2356215e-06 6.0577162e-06 -1.1820909e-06)
(-1.6916361e-06 7.6577725e-06 -1.1653972e-06)
(2.2061725e-06 7.6377441e-06 -8.8558961e-07)
(-5.9041261e-06 1.0969133e-07 -3.0307187e-07)
(-5.231957e-06 2.4495121e-06 -5.2696241e-07)
(-3.5206901e-06 4.3075264e-06 -6.6197353e-07)
(-1.1389694e-06 5.3128746e-06 -6.4413139e-07)
(1.6280457e-06 5.3176174e-06 -4.6130076e-07)
)
;

boundaryField
{
    movingWall
    {
        type            fixedValue;
        value           nonuniform 0();
    }
    CPLReceiveMD
    {
        type            fixedValue;
        value           nonuniform 0();
    }
    streamwiseIn
    {
        type            cyclic;
    }
    streamwiseOut
    {
        type            cyclic;
    }
    front
    {
        type            cyclic;
    }
    back
    {
        type            cyclic;
    }
    procBoundary14to5
    {
        type            processor;
        value           nonuniform List<vector> 
25
(
(-4.169058e-05 1.3443989e-05 1.6931446e-05)
(-3.1791308e-05 2.7495254e-05 2.2886859e-05)
(-1.7524622e-05 3.9575581e-05 2.300394e-05)
(1.0717488e-06 4.5477135e-05 1.9273589e-05)
(1.9219434e-05 3.9038528e-05 1.3031834e-05)
(-2.7573885e-05 8.7584596e-06 8.5311757e-06)
(-2.1117764e-05 1.9263393e-05 1.2005134e-05)
(-1.134593e-05 2.6597352e-05 1.2573615e-05)
(4.9050416e-07 2.923063e-05 1.0852998e-05)
(1.179909e-05 2.5602216e-05 7.602637e-06)
(-1.8028395e-05 5.6223615e-06 4.4213006e-06)
(-1.3952417e-05 1.277046e-05 6.3812494e-06)
(-7.5573866e-06 1.7515103e-05 6.8709666e-06)
(7.6610699e-08 1.9035027e-05 6.08592e-06)
(7.3876244e-06 1.6894721e-05 4.4034179e-06)
(-1.1767192e-05 3.6092075e-06 2.3748379e-06)
(-9.2250235e-06 8.3021056e-06 3.4567224e-06)
(-5.0813642e-06 1.1414134e-05 3.7831025e-06)
(-1.2987833e-07 1.2403183e-05 3.4191044e-06)
(4.7041368e-06 1.1111111e-05 2.5338304e-06)
(-7.658328e-06 2.2022367e-06 1.2840039e-06)
(-6.1474901e-06 5.3153546e-06 1.9014531e-06)
(-3.4563095e-06 7.3888915e-06 2.1217494e-06)
(-2.2641261e-07 8.0846647e-06 1.9518551e-06)
(3.0554409e-06 7.352395e-06 1.4925491e-06)
)
;
    }
    procBoundary14to11
    {
        type            processor;
        value           nonuniform List<vector> 
25
(
(-4.6385029e-05 -4.339952e-07 2.4597984e-05)
(-4.2372808e-05 1.1732764e-05 3.199944e-05)
(-3.1125011e-05 3.3619278e-05 3.4064559e-05)
(-7.051306e-06 5.1195457e-05 3.0823232e-05)
(2.0192586e-05 4.6868745e-05 2.0729419e-05)
(-3.6719613e-05 -1.1627926e-05 1.5631531e-05)
(-3.7782781e-05 -3.1989902e-07 1.9952853e-05)
(-3.050402e-05 1.801096e-05 2.2124319e-05)
(-1.2307583e-05 3.4102515e-05 2.1121065e-05)
(1.0637901e-05 3.710218e-05 1.4109503e-05)
(-3.225224e-05 -1.8244011e-05 7.9049083e-06)
(-3.5880023e-05 -5.9173935e-06 8.187911e-06)
(-2.9956801e-05 1.1247942e-05 8.5088088e-06)
(-1.5066124e-05 2.5632567e-05 8.8077117e-06)
(4.7856158e-06 3.3545434e-05 6.1785038e-06)
(-3.2987589e-05 -2.0100827e-05 1.3990938e-06)
(-3.7178882e-05 -3.5494983e-06 -2.0081337e-06)
(-2.988422e-05 1.4197836e-05 -3.7602882e-06)
(-1.4637889e-05 2.5294927e-05 -3.2280331e-06)
(4.1670453e-06 3.1831624e-05 -1.5044057e-06)
(-3.7764294e-05 -1.7936294e-05 -3.1206422e-06)
(-4.1039405e-05 2.1018029e-06 -9.6049493e-06)
(-3.1176701e-05 2.1212715e-05 -1.358439e-05)
(-1.2810241e-05 3.1824967e-05 -1.3929026e-05)
(7.661071e-06 3.3942654e-05 -9.3360406e-06)
)
;
    }
    procBoundary14to12throughstreamwiseOut
    {
        type            processorCyclic;
        value           nonuniform List<vector> 
25
(
(2.4462226e-05 2.1761239e-05 5.8693425e-06)
(1.6159392e-05 1.5363492e-05 3.6172229e-06)
(1.0768707e-05 1.0640109e-05 2.1578468e-06)
(7.2113115e-06 7.2428463e-06 1.2542625e-06)
(4.8532681e-06 4.9399302e-06 7.1325528e-07)
(1.9182146e-05 1.9432315e-05 4.1650864e-06)
(1.3076637e-05 1.3687326e-05 2.6809017e-06)
(8.9885106e-06 9.5771138e-06 1.6417447e-06)
(6.1935168e-06 6.6264081e-06 1.0003827e-06)
(4.2601862e-06 4.5358083e-06 6.250896e-07)
(1.5953718e-05 1.8728043e-05 1.8989421e-06)
(1.1147676e-05 1.284015e-05 1.3263e-06)
(7.8280183e-06 8.9595904e-06 8.7003957e-07)
(5.4975995e-06 6.2261912e-06 5.5328944e-07)
(3.861338e-06 4.2476541e-06 3.3886204e-07)
(1.5091251e-05 1.8421759e-05 -3.884113e-07)
(1.0547183e-05 1.2658424e-05 -1.5165201e-07)
(7.4158147e-06 8.8041032e-06 -1.0986363e-08)
(5.2372294e-06 6.0952305e-06 2.9398435e-08)
(3.7314082e-06 4.1044658e-06 3.7259434e-08)
(1.645775e-05 1.8928969e-05 -2.6361687e-06)
(1.1244836e-05 1.3217575e-05 -1.6262549e-06)
(7.7752565e-06 9.1406409e-06 -9.6716149e-07)
(5.4531478e-06 6.274437e-06 -6.0694502e-07)
(3.9153434e-06 4.1127529e-06 -4.2950413e-07)
)
;
    }
    procBoundary14to13
    {
        type            processor;
        value           nonuniform List<vector> 
25
(
(-3.3162803e-05 -9.2420877e-06 3.9635162e-06)
(-2.2885605e-05 -5.9615004e-06 2.1568736e-06)
(-1.551768e-05 -3.7978157e-06 1.238574e-06)
(-1.0433493e-05 -2.3957332e-06 7.3734626e-07)
(-7.0262969e-06 -1.6328017e-06 4.8428711e-07)
(-2.4652633e-05 -1.1493043e-05 3.1110287e-06)
(-1.8161261e-05 -7.1237361e-06 1.7585549e-06)
(-1.290838e-05 -4.4557604e-06 1.0351013e-06)
(-8.9924877e-06 -2.8222483e-06 5.9751069e-07)
(-6.2047531e-06 -1.8310272e-06 3.1520354e-07)
(-1.9645488e-05 -1.3303596e-05 2.3743165e-06)
(-1.5234735e-05 -8.0374279e-06 1.2934066e-06)
(-1.1236492e-05 -4.95886e-06 7.1081656e-07)
(-8.0441376e-06 -3.115631e-06 4.0059144e-07)
(-5.6562488e-06 -1.9726405e-06 2.3125639e-07)
(-1.8132163e-05 -1.4655522e-05 1.8750368e-06)
(-1.4250577e-05 -8.787236e-06 8.9896506e-07)
(-1.0627972e-05 -5.3485756e-06 4.132613e-07)
(-7.6777398e-06 -3.3018085e-06 2.0070794e-07)
(-5.4298346e-06 -2.0582514e-06 1.1158689e-07)
(-1.9833037e-05 -1.5908552e-05 1.6116798e-06)
(-1.507388e-05 -9.4992034e-06 6.2662663e-07)
(-1.1031847e-05 -5.6571171e-06 2.4260951e-07)
(-7.8775814e-06 -3.4173054e-06 8.3522545e-08)
(-5.5156863e-06 -2.0829446e-06 8.4903071e-09)
)
;
    }
    procBoundary14to17
    {
        type            processor;
        value           nonuniform List<vector> 
25
(
(-4.6298028e-06 1.0235525e-06 7.6725177e-07)
(-3.8960378e-06 2.7830255e-06 1.0465072e-06)
(-2.3520697e-06 4.0260207e-06 1.1417434e-06)
(-4.1355014e-07 4.5301851e-06 1.0439626e-06)
(1.678394e-06 4.2031984e-06 7.6673303e-07)
(-4.3116493e-06 6.1520353e-07 5.2852828e-07)
(-3.6638772e-06 2.2271055e-06 7.9656203e-07)
(-2.3145988e-06 3.4283816e-06 8.9657086e-07)
(-5.4138526e-07 3.9949895e-06 8.440142e-07)
(1.3655803e-06 3.8148751e-06 6.6656171e-07)
(-4.0909128e-06 3.5137904e-07 3.4616727e-07)
(-3.5279952e-06 1.8591573e-06 4.8057154e-07)
(-2.3046175e-06 3.0224265e-06 5.1701233e-07)
(-6.4355928e-07 3.6206695e-06 4.6543061e-07)
(1.1424865e-06 3.5380142e-06 3.5602965e-07)
(-4.004445e-06 2.385248e-07 9.5539513e-08)
(-3.4930321e-06 1.7082866e-06 9.8574501e-08)
(-2.3297398e-06 2.8594391e-06 6.7653727e-08)
(-7.0236794e-07 3.4738602e-06 3.0932979e-08)
(1.0220966e-06 3.4423842e-06 2.9667891e-08)
(-4.0827421e-06 2.4499433e-07 -1.6807399e-07)
(-3.555881e-06 1.7648018e-06 -3.1384061e-07)
(-2.372259e-06 2.9472276e-06 -4.0634803e-07)
(-6.8154512e-07 3.5771922e-06 -4.4100565e-07)
(1.0060508e-06 3.5744938e-06 -4.2457889e-07)
)
;
    }
    procBoundary14to23
    {
        type            processor;
        value           nonuniform List<vector> 
25
(
(-3.0623673e-05 -6.9373303e-06 -4.4947759e-06)
(-2.9924728e-05 8.0392738e-06 -9.2673845e-06)
(-2.1061182e-05 2.1593443e-05 -1.2374169e-05)
(-6.4677107e-06 2.9151588e-05 -1.248668e-05)
(8.8716866e-06 2.8106458e-05 -9.170847e-06)
(-2.0524369e-05 -2.6916098e-06 -2.9872127e-06)
(-1.9111856e-05 6.5925355e-06 -5.5271294e-06)
(-1.3095982e-05 1.4818553e-05 -7.0036104e-06)
(-3.8765254e-06 1.9364458e-05 -6.8894541e-06)
(5.7399865e-06 1.8969507e-05 -5.2026225e-06)
(-1.3874832e-05 -6.5664004e-07 -1.8783393e-06)
(-1.2414566e-05 5.2443639e-06 -3.247381e-06)
(-8.2892598e-06 1.0269189e-05 -3.979447e-06)
(-2.3167567e-06 1.2983905e-05 -3.8728018e-06)
(3.834659e-06 1.2727844e-05 -2.9756266e-06)
(-9.3883257e-06 1.7102321e-07 -1.1736271e-06)
(-8.1860273e-06 4.0102284e-06 -1.9065884e-06)
(-5.3564415e-06 7.130288e-06 -2.2819335e-06)
(-1.4178701e-06 8.7531685e-06 -2.2002511e-06)
(2.5794943e-06 8.5485045e-06 -1.6805427e-06)
(-6.3286757e-06 4.2565116e-07 -7.4592101e-07)
(-5.4553014e-06 2.9282662e-06 -1.152558e-06)
(-3.5463198e-06 4.8803723e-06 -1.3378423e-06)
(-8.9854033e-07 5.8278029e-06 -1.2469304e-06)
(1.7143783e-06 5.5776435e-06 -8.9244919e-07)
)
;
    }
}


// ************************************************************************* //
