/*--------------------------------*- C++ -*----------------------------------*\
| =========                 |                                                 |
| \\      /  F ield         | OpenFOAM: The Open Source CFD Toolbox           |
|  \\    /   O peration     | Version:  3.0.1                                 |
|   \\  /    A nd           | Web:      www.OpenFOAM.org                      |
|    \\/     M anipulation  |                                                 |
\*---------------------------------------------------------------------------*/
FoamFile
{
    version     2.0;
    format      ascii;
    class       surfaceScalarField;
    location    "0.2";
    object      phi;
}
// * * * * * * * * * * * * * * * * * * * * * * * * * * * * * * * * * * * * * //

dimensions      [0 3 -1 0 0 0 0];

internalField   nonuniform List<scalar> 
300
(
0.019447098
0.0086210342
-0.00078994682
0.017888722
0.0013897345
-0.0006223812
0.01494684
-0.0043375773
-0.00024875445
0.013292863
-0.0083971868
0.0008104237
-0.012405475
0.0020917949
0.012274216
0.0063152414
-0.00035571323
0.012176134
0.0018018361
-0.00020788087
0.010884513
-0.0022449371
3.5054667e-05
0.0092775716
-0.0055976972
0.00048047857
-0.0086182581
0.0009845385
0.0077894537
0.0043741845
-0.00017799516
0.0081386819
0.0015469404
-6.9523704e-05
0.0075315013
-0.0012002417
6.3134532e-05
0.006254377
-0.0036456093
0.00026762281
-0.0057522756
0.00047397338
0.0049706829
0.0029228701
-9.3681402e-05
0.005396782
0.0011630434
-3.0795817e-05
0.005086979
-0.00064328949
5.082974e-05
0.0041469325
-0.0023322143
0.00014616975
-0.0037658836
0.00023130855
0.0032221854
-2.5207028e-05
0.0035933876
1.3539243e-05
0.0033992466
4.1823714e-05
0.002713544
7.8296435e-05
0.00012229736
0.019584985
0.0090656126
-6.1871921e-05
0.018294203
0.001843135
-0.0010722478
0.016008144
-0.0040492972
-0.0016619024
0.014573419
-0.0087280395
-0.0015919358
-0.013514003
-0.0013914035
0.0124193
0.0064950064
0.00018447752
0.0124191
0.0019423835
-0.00038127099
0.011330229
-0.0022159652
-0.00075614972
0.00978517
-0.0058105611
-0.00085730322
-0.0091260111
-0.00090258237
0.0078927991
0.0044595934
0.00019010785
0.0082711316
0.0015864882
-0.00012242253
0.007736959
-0.0012121789
-0.00035199161
0.0064688763
-0.003767977
-0.00047680427
-0.0060024313
-0.00056669513
0.0050253181
0.0029913363
0.00015751658
0.0054783907
0.0012076045
-1.9908022e-05
0.0051828777
-0.00065221254
-0.00016450211
0.0042344502
-0.0024009642
-0.00026805702
-0.0038784562
-0.00033726546
0.0032681396
0.00011265004
0.0036216696
5.9458093e-06
0.0034356335
-8.6700073e-05
0.0027574968
-0.0001510617
-0.00019136764
0.018579872
0.0093249102
0.0011856633
0.017707867
0.002539711
-0.00091176704
0.016077275
-0.0031427118
-0.0023691779
0.014775153
-0.0079940192
-0.0033131564
-0.013030618
-0.0043151163
0.011851163
0.0065030191
0.0008715973
0.012044282
0.0022027034
-0.00031688293
0.011228557
-0.0018111561
-0.0012338173
0.0097397654
-0.0054303604
-0.0019283928
-0.0087914097
-0.0025454613
0.0075625967
0.0044274504
0.00058867773
0.0080416608
0.0016895235
-8.6191076e-05
0.007611882
-0.0010244165
-0.00064467121
0.0063786627
-0.0035593103
-0.0010987783
-0.0057735192
-0.0014616298
0.004854028
0.0029460645
0.00038105253
0.0053339282
0.0012334293
-5.8298307e-06
0.0050792545
-0.00057434948
-0.00034268496
0.0041649828
-0.0022839323
-0.00061896786
-0.0037324686
-0.00082846699
0.0031634873
0.00023079089
0.0035290865
1.0875182e-05
0.0033712776
-0.00018466659
0.0027171489
-0.00035134356
-0.00047476142
0.016482687
0.0090072008
0.0021255733
0.016254638
0.0031333125
-0.00042323004
0.015132903
-0.0020075075
-0.0024893591
0.013774101
-0.0066090544
-0.0042734046
-0.011268337
-0.0060547069
0.010656448
0.0062188913
0.0013792629
0.011128651
0.0024326968
-0.00012900561
0.010533615
-0.001222004
-0.001408664
0.0091221612
-0.0046006703
-0.0025134262
-0.0077079102
-0.0034968566
0.0068808764
0.0042187992
0.00086223817
0.0074837529
0.0017694421
-1.325075e-05
0.0071576441
-0.00072241981
-0.00078557544
0.0060154842
-0.0030793924
-0.0014468209
-0.0051403949
-0.0019869682
0.0044801839
0.0027951611
0.00051630866
0.0049973485
0.0012498921
2.2040267e-05
0.0048029397
-0.00041647079
-0.00043637885
0.0039552206
-0.0020164037
-0.00082614277
-0.0033786982
-0.0011273028
0.0029442682
0.00031611129
0.003333524
3.5481329e-05
0.0032045025
-0.00023385612
0.0025936477
-0.00047130873
-0.0006438132
0.013926425
0.0082489012
0.014191358
0.0034216686
0.013348441
-0.00092732018
0.011972554
-0.0048480041
-0.0086855713
0.0091262496
0.0056973109
0.0098501
0.0025459497
0.0094285043
-0.00059935833
0.0081370423
-0.0035336313
-0.0061966971
0.0060110703
0.0038705588
0.0067119225
0.0018034651
0.0064961865
-0.0003734702
0.0054748801
-0.0024584123
-0.004280281
0.0039891522
0.0025940454
0.0045391835
0.0012627134
0.0044130434
-0.00021417723
0.0036538622
-0.0016613646
-0.0028949472
0.0026637916
0.0030641106
0.0029670453
0.002420989
)
;

boundaryField
{
    movingWall
    {
        type            calculated;
        value           nonuniform 0();
    }
    CPLReceiveMD
    {
        type            calculated;
        value           nonuniform 0();
    }
    streamwiseIn
    {
        type            cyclic;
        value           nonuniform 0();
    }
    streamwiseOut
    {
        type            cyclic;
        value           nonuniform 0();
    }
    front
    {
        type            cyclic;
        value           nonuniform 0();
    }
    back
    {
        type            cyclic;
        value           nonuniform 0();
    }
    procBoundary3to0
    {
        type            processor;
        value           nonuniform List<scalar> 
25
(
-0.01075533
0.00096164904
0.008842958
0.012077356
0.016209056
-0.011770546
-0.00011882113
0.007705354
0.012560952
0.018565967
-0.012894862
-0.0019120743
0.0054964878
0.011042102
0.018179097
-0.012712834
-0.0034159963
0.003306708
0.0088858462
0.015810006
-0.011559548
-0.0041235154
0.0014353451
0.0061218347
0.011620279
)
;
    }
    procBoundary3to4
    {
        type            processor;
        value           nonuniform List<scalar> 
25
(
0.012099818
0.0069958064
0.0042084999
0.0026041011
0.0016050271
0.012769999
0.0073000766
0.0043306213
0.0026495877
0.001640451
0.012260264
0.007085803
0.0042353471
0.002598737
0.0016158183
0.010777865
0.0064525945
0.0039579852
0.002469522
0.0015512316
0.0091035625
0.0056729714
0.0036006307
0.0023034092
0.001465074
)
;
    }
    procBoundary3to5throughstreamwiseIn
    {
        type            processorCyclic;
        value           nonuniform List<scalar> 
25
(
-0.017535533
-0.010298209
-0.0062006664
-0.0038023383
-0.0023563178
-0.017699827
-0.010378708
-0.0062303149
-0.0038106012
-0.0023708404
-0.016373358
-0.0096894159
-0.0058632771
-0.0036172498
-0.0022817507
-0.013826434
-0.0083701937
-0.0051657965
-0.0032520758
-0.0020958708
-0.010847607
-0.0067538336
-0.0042963477
-0.0027913814
-0.0018649041
)
;
    }
    procBoundary3to6
    {
        type            processor;
        value           nonuniform List<scalar> 
25
(
0.0019034553
0.00078184039
-0.00042299819
-0.0015515992
-0.0024799955
0.001944474
0.00081505943
-0.00040663809
-0.0015621951
-0.0025113294
0.0019039071
0.00082578598
-0.00035935991
-0.0014933981
-0.0024298578
0.0017976007
0.00082399765
-0.00027664391
-0.0013451136
-0.0022375823
0.0016436414
0.00080175421
-0.00017763486
-0.0011482218
-0.0019722176
)
;
    }
    procBoundary3to12
    {
        type            processor;
        value           nonuniform List<scalar> 
25
(
0.0025506809
-3.8917018e-06
-0.0021860097
-0.0041627887
-0.0060646536
0.0015624238
5.0303571e-05
-0.001308843
-0.0025237963
-0.0035955219
0.00092949417
4.7850089e-05
-0.00076964922
-0.0014940077
-0.0020881016
0.00052575955
3.194851e-05
-0.00045088504
-0.00087578444
-0.0012017004
0.00026813862
4.7765695e-07
-0.00027423995
-0.00051779475
-0.00070106279
)
;
    }
    procBoundary3to21throughfront
    {
        type            processorCyclic;
        value           nonuniform List<scalar> 
25
(
0.0010273866
0.00064166923
0.00036107618
0.00019693426
0.00010836833
-0.00030548409
-0.00012438612
-6.3980581e-05
-4.5166147e-05
-4.9095362e-05
-0.0014713943
-0.00087450258
-0.00050952755
-0.0002991827
-0.00021534913
-0.0029379826
-0.0016867557
-0.00095883092
-0.00054791155
-0.00035388366
-0.0045287304
-0.0024869257
-0.001359104
-0.0007459376
-0.00045439138
)
;
    }
}


// ************************************************************************* //
