/*--------------------------------*- C++ -*----------------------------------*\
| =========                 |                                                 |
| \\      /  F ield         | OpenFOAM: The Open Source CFD Toolbox           |
|  \\    /   O peration     | Version:  3.0.1                                 |
|   \\  /    A nd           | Web:      www.OpenFOAM.org                      |
|    \\/     M anipulation  |                                                 |
\*---------------------------------------------------------------------------*/
FoamFile
{
    version     2.0;
    format      ascii;
    class       volVectorField;
    location    "0.2";
    object      U;
}
// * * * * * * * * * * * * * * * * * * * * * * * * * * * * * * * * * * * * * //

dimensions      [0 1 -1 0 0 0 0];

internalField   nonuniform List<vector> 
125
(
(4.6427335e-05 2.418158e-05 -2.2775476e-06)
(4.6813309e-05 5.3616094e-07 -4.4517053e-07)
(4.1075782e-05 -1.645079e-05 1.5226699e-06)
(3.5297111e-05 -2.5578948e-05 4.6925493e-06)
(3.173898e-05 -3.5789091e-05 8.2961151e-06)
(2.8281059e-05 1.8638142e-05 -1.2458712e-06)
(3.0634695e-05 3.9844479e-06 -1.057632e-07)
(2.8844102e-05 -8.2267494e-06 1.1367503e-06)
(2.5205052e-05 -1.7492948e-05 2.7119492e-06)
(2.0343959e-05 -2.6287702e-05 4.3481483e-06)
(1.7519434e-05 1.3338964e-05 -6.7083262e-07)
(1.9948416e-05 4.1785917e-06 -3.7976015e-09)
(1.9598384e-05 -4.3076031e-06 7.1633354e-07)
(1.7236158e-05 -1.1554442e-05 1.5357116e-06)
(1.3082005e-05 -1.7966616e-05 2.3045205e-06)
(1.09914e-05 9.1071721e-06 -3.6113376e-07)
(1.2988127e-05 3.3805521e-06 1.9903624e-08)
(1.3111068e-05 -2.3067188e-06 4.3820909e-07)
(1.154604e-05 -7.4729574e-06 8.6908909e-07)
(8.4424949e-06 -1.1898625e-05 1.2255687e-06)
(6.9856612e-06 6.024725e-06 -1.6673697e-07)
(8.5345253e-06 2.425698e-06 7.9018625e-08)
(8.7448748e-06 -1.3357766e-06 3.2424459e-07)
(7.6442516e-06 -4.8562262e-06 5.4148529e-07)
(5.4013358e-06 -7.8079624e-06 7.2108669e-07)
(4.67607e-05 2.598079e-05 -1.0763901e-06)
(4.7491175e-05 2.4437956e-06 -2.1662404e-06)
(4.2913999e-05 -1.4687597e-05 -2.39289e-06)
(3.8230525e-05 -2.6580973e-05 -9.7280157e-07)
(3.4180624e-05 -4.0100745e-05 8.8281558e-07)
(2.8561064e-05 1.9408645e-05 -2.1499456e-07)
(3.1123833e-05 4.720308e-06 -7.3707975e-07)
(2.9707537e-05 -7.8321657e-06 -9.0123396e-07)
(2.6399261e-05 -1.8171348e-05 -4.6786888e-07)
(2.1359258e-05 -2.8300182e-05 1.1118381e-07)
(1.7691431e-05 1.3667146e-05 1.4983234e-08)
(2.0250363e-05 4.4005017e-06 -2.3992256e-07)
(2.0022342e-05 -4.2876013e-06 -3.605079e-07)
(1.7762508e-05 -1.1973474e-05 -2.5875134e-07)
(1.3503171e-05 -1.8910913e-05 -1.0242695e-07)
(1.1080205e-05 9.298485e-06 7.9869249e-08)
(1.3169085e-05 3.4846356e-06 -6.314459e-08)
(1.3333561e-05 -2.3336498e-06 -1.4155109e-07)
(1.1775949e-05 -7.7121155e-06 -1.5083804e-07)
(8.6089147e-06 -1.2351314e-05 -1.2764731e-07)
(7.052228e-06 6.1614022e-06 1.0974486e-07)
(8.6182277e-06 2.5227449e-06 2.4800938e-08)
(8.8255903e-06 -1.3265862e-06 -5.5770312e-08)
(7.744843e-06 -4.9552132e-06 -9.0717568e-08)
(5.5008164e-06 -7.9872431e-06 -8.5896474e-08)
(4.383179e-05 2.7668627e-05 1.4000295e-06)
(4.5496809e-05 5.5451735e-06 -2.4816046e-06)
(4.226922e-05 -1.0797775e-05 -5.0380682e-06)
(3.8572817e-05 -2.3769908e-05 -6.1290746e-06)
(3.3796354e-05 -3.8976038e-05 -7.1260067e-06)
(2.6990682e-05 1.9729516e-05 1.3203033e-06)
(2.9948455e-05 5.9107656e-06 -8.7221881e-07)
(2.9113313e-05 -6.1943674e-06 -2.4871488e-06)
(2.621747e-05 -1.6778898e-05 -3.4816268e-06)
(2.1035523e-05 -2.7272945e-05 -4.3086795e-06)
(1.6841876e-05 1.3633828e-05 9.7382679e-07)
(1.9572925e-05 4.8525269e-06 -2.6038432e-07)
(1.9579556e-05 -3.5479203e-06 -1.2455155e-06)
(1.7494239e-05 -1.1237411e-05 -1.9693265e-06)
(1.3271757e-05 -1.8205447e-05 -2.5352876e-06)
(1.0616535e-05 9.2019337e-06 6.7358864e-07)
(1.2766706e-05 3.6452756e-06 -3.1765038e-08)
(1.3023374e-05 -2.0019812e-06 -6.3360956e-07)
(1.1559944e-05 -7.3049236e-06 -1.1085957e-06)
(8.4586382e-06 -1.1882095e-05 -1.4571321e-06)
(6.8073606e-06 6.0547037e-06 4.2981358e-07)
(8.3690101e-06 2.5685187e-06 2.1546179e-08)
(8.6293563e-06 -1.1701475e-06 -3.3881524e-07)
(7.6141254e-06 -4.7228021e-06 -6.2772702e-07)
(5.4197041e-06 -7.7027541e-06 -8.3228913e-07)
(3.8017302e-05 2.7063632e-05 4.1459701e-06)
(4.1053077e-05 8.1716547e-06 -1.6620006e-06)
(3.9266529e-05 -6.6433612e-06 -6.0705175e-06)
(3.6142586e-05 -1.9355892e-05 -9.4835418e-06)
(3.0693673e-05 -3.3693763e-05 -1.2983746e-05)
(2.3855298e-05 1.8982442e-05 2.8165806e-06)
(2.731638e-05 6.9415281e-06 -5.5481167e-07)
(2.7098129e-05 -4.0396131e-06 -3.3022401e-06)
(2.457773e-05 -1.40116e-05 -5.5529885e-06)
(1.9473123e-05 -2.3709463e-05 -7.5549071e-06)
(1.5126227e-05 1.3020431e-05 1.8152764e-06)
(1.803102e-05 5.2409554e-06 -1.2287409e-07)
(1.8313399e-05 -2.434062e-06 -1.7873033e-06)
(1.6472735e-05 -9.6004427e-06 -3.1823779e-06)
(1.2471545e-05 -1.6059365e-05 -4.3116892e-06)
(9.6761426e-06 8.7544717e-06 1.1228267e-06)
(1.1861887e-05 3.7665661e-06 2.1286186e-08)
(1.2256731e-05 -1.4269495e-06 -9.7338342e-07)
(1.0952427e-05 -6.370516e-06 -1.8064306e-06)
(8.0350554e-06 -1.0648316e-05 -2.4451209e-06)
(6.3000251e-06 5.7343103e-06 6.8434232e-07)
(7.8495988e-06 2.5873914e-06 5.8471772e-08)
(8.1763171e-06 -8.6918753e-07 -5.2269241e-07)
(7.2513691e-06 -4.2029516e-06 -1.0279102e-06)
(5.1845571e-06 -7.0203147e-06 -1.3982169e-06)
(3.1096869e-05 2.4708816e-05 5.8620871e-06)
(3.5280321e-05 9.4265325e-06 -5.2324133e-07)
(3.4447679e-05 -2.9546437e-06 -5.8422832e-06)
(3.1659588e-05 -1.3713304e-05 -1.055191e-05)
(2.6351057e-05 -2.536542e-05 -1.522057e-05)
(1.9948191e-05 1.7398822e-05 3.6847225e-06)
(2.3829634e-05 7.4498921e-06 -9.3268894e-08)
(2.4115136e-05 -1.9111532e-06 -3.3954713e-06)
(2.1964803e-05 -1.0477734e-05 -6.2973808e-06)
(1.7268103e-05 -1.8600888e-05 -8.880363e-06)
(1.2944544e-05 1.1940074e-05 2.2431364e-06)
(1.5970345e-05 5.4286247e-06 4.5898245e-08)
(1.6520052e-05 -1.2190636e-06 -1.9429999e-06)
(1.4969853e-05 -7.4908534e-06 -3.6764276e-06)
(1.1349483e-05 -1.309566e-05 -5.0948739e-06)
(8.4820942e-06 8.0709996e-06 1.3044009e-06)
(1.0670496e-05 3.8266214e-06 6.8999351e-08)
(1.1195657e-05 -7.3737037e-07 -1.1084398e-06)
(1.0088206e-05 -5.1504559e-06 -2.1275607e-06)
(7.4509092e-06 -8.9686223e-06 -2.9117207e-06)
(5.6600541e-06 5.2920952e-06 7.3151092e-07)
(7.1619754e-06 2.5764291e-06 4.5792095e-08)
(7.5429743e-06 -4.9202209e-07 -6.3463585e-07)
(6.738601e-06 -3.5128878e-06 -1.2361055e-06)
(4.8609389e-06 -6.0842354e-06 -1.6812795e-06)
)
;

boundaryField
{
    movingWall
    {
        type            fixedValue;
        value           nonuniform 0();
    }
    CPLReceiveMD
    {
        type            fixedValue;
        value           nonuniform 0();
    }
    streamwiseIn
    {
        type            cyclic;
    }
    streamwiseOut
    {
        type            cyclic;
    }
    front
    {
        type            cyclic;
    }
    back
    {
        type            cyclic;
    }
    procBoundary3to0
    {
        type            processor;
        value           nonuniform List<vector> 
25
(
(7.7663734e-05 2.7799823e-05 -3.8863043e-06)
(7.1267067e-05 -1.2077673e-05 -1.2623295e-06)
(5.4959212e-05 -3.6031821e-05 1.1544103e-06)
(4.4543354e-05 -3.5481985e-05 7.8569231e-06)
(4.9043637e-05 -3.96118e-05 1.5846517e-05)
(7.7863864e-05 3.089301e-05 -3.7020428e-06)
(7.1792223e-05 -7.3712658e-06 -5.7460927e-06)
(5.8732307e-05 -2.8931601e-05 -6.5542491e-06)
(5.1812409e-05 -3.6631795e-05 -2.2769086e-06)
(5.524879e-05 -5.0413618e-05 3.2981305e-06)
(7.2736434e-05 3.6398752e-05 2.3746098e-07)
(6.841486e-05 -1.8146333e-07 -6.6000781e-06)
(5.8428395e-05 -1.8992169e-05 -1.0531385e-05)
(5.4395733e-05 -2.9893529e-05 -1.0706708e-05)
(5.5247716e-05 -5.0891607e-05 -1.0715661e-05)
(6.178279e-05 3.6693098e-05 5.7763923e-06)
(6.1023376e-05 6.7363139e-06 -4.4361707e-06)
(5.4625676e-05 -1.0787621e-05 -1.1145372e-05)
(5.1628133e-05 -2.4105098e-05 -1.5609593e-05)
(4.8959855e-05 -4.5201266e-05 -2.1165525e-05)
(4.9560189e-05 3.3897663e-05 8.9871159e-06)
(5.1493095e-05 9.6207239e-06 -1.6519698e-06)
(4.7254973e-05 -4.6883915e-06 -9.8468167e-06)
(4.4375579e-05 -1.5647433e-05 -1.7153345e-05)
(4.0428564e-05 -3.2033577e-05 -2.5363777e-05)
)
;
    }
    procBoundary3to4
    {
        type            processor;
        value           nonuniform List<vector> 
25
(
(2.3725663e-05 -5.4278625e-05 1.1136258e-05)
(1.2204016e-05 -3.6149923e-05 5.5746795e-06)
(6.6802685e-06 -2.3455906e-05 2.7972272e-06)
(3.8460936e-06 -1.5153626e-05 1.4301674e-06)
(2.2725559e-06 -9.7236756e-06 7.4704943e-07)
(2.5037017e-05 -6.0470504e-05 1.0845726e-06)
(1.2631982e-05 -3.8848802e-05 2.2369585e-07)
(6.8085016e-06 -2.4723817e-05 -6.8998872e-08)
(3.8836204e-06 -1.571447e-05 -1.3469468e-07)
(2.2771561e-06 -9.9890309e-06 -7.2349197e-08)
(2.3255738e-05 -5.79821e-05 -9.6160253e-06)
(1.2054074e-05 -3.7303495e-05 -5.3677617e-06)
(6.630139e-06 -2.3814296e-05 -3.0009519e-06)
(3.8186452e-06 -1.5156977e-05 -1.6824549e-06)
(2.2495367e-06 -9.6606085e-06 -9.4398633e-07)
(1.9605773e-05 -4.8842623e-05 -1.6928838e-05)
(1.0782878e-05 -3.2233728e-05 -9.3204088e-06)
(6.1879082e-06 -2.1038511e-05 -5.1046523e-06)
(3.6677433e-06 -1.3657504e-05 -2.8141596e-06)
(2.206476e-06 -8.8473086e-06 -1.5866754e-06)
(1.6112718e-05 -3.6873764e-05 -1.9420046e-05)
(9.4087933e-06 -2.5479309e-05 -1.0840495e-05)
(5.6753988e-06 -1.7308047e-05 -6.014679e-06)
(3.4919307e-06 -1.1639e-05 -3.3372658e-06)
(2.140396e-06 -7.7486089e-06 -1.859822e-06)
)
;
    }
    procBoundary3to5throughstreamwiseIn
    {
        type            processorCyclic;
        value           nonuniform List<vector> 
25
(
(3.5724312e-05 4.9918831e-05 -4.2525539e-06)
(2.0137922e-05 3.2892347e-05 -2.3881387e-06)
(1.167944e-05 2.146825e-05 -1.3753599e-06)
(6.9337027e-06 1.3914324e-05 -7.9524978e-07)
(4.1677944e-06 8.9310496e-06 -4.0983881e-07)
(3.6137717e-05 5.174659e-05 4.2930401e-07)
(2.038349e-05 3.3789575e-05 5.5329709e-07)
(1.1788621e-05 2.188136e-05 4.3763455e-07)
(6.9741052e-06 1.4123838e-05 3.1172104e-07)
(4.2406442e-06 9.0562558e-06 2.0310151e-07)
(3.2500365e-05 5.129092e-05 6.2617921e-06)
(1.8642134e-05 3.2900678e-05 3.833547e-06)
(1.0925436e-05 2.1226674e-05 2.3048197e-06)
(6.5487732e-06 1.3679791e-05 1.3722975e-06)
(4.0366534e-06 8.7767657e-06 7.7374904e-07)
(2.6231571e-05 4.6099143e-05 1.107292e-05)
(1.5499397e-05 2.9832602e-05 6.4876796e-06)
(9.3267649e-06 1.942011e-05 3.7744583e-06)
(5.7336413e-06 1.2592768e-05 2.1557267e-06)
(3.6032142e-06 8.1551786e-06 1.2057783e-06)
(1.9219434e-05 3.9038528e-05 1.3031834e-05)
(1.179909e-05 2.5602216e-05 7.602637e-06)
(7.3876244e-06 1.6894721e-05 4.4034179e-06)
(4.7041368e-06 1.1111111e-05 2.5338304e-06)
(3.0554409e-06 7.352395e-06 1.4925491e-06)
)
;
    }
    procBoundary3to6
    {
        type            processor;
        value           nonuniform List<vector> 
25
(
(4.4860488e-06 3.907049e-06 -7.7845405e-08)
(5.6276251e-06 1.6596243e-06 4.6154425e-08)
(5.8291434e-06 -8.0734419e-07 1.6243556e-07)
(5.0738539e-06 -3.1453261e-06 2.7496356e-07)
(3.5750455e-06 -5.0543303e-06 3.7046926e-07)
(4.5466942e-06 3.9709014e-06 1.0984795e-07)
(5.6810966e-06 1.6794843e-06 7.9676046e-08)
(5.855603e-06 -8.2653892e-07 2.4077964e-08)
(5.1152922e-06 -3.2078877e-06 -1.7413873e-08)
(3.5750969e-06 -5.1558343e-06 -2.2439005e-08)
(4.4082876e-06 3.8943375e-06 2.4649674e-07)
(5.5418551e-06 1.6885858e-06 3.2881475e-08)
(5.7320535e-06 -7.4855898e-07 -1.7621086e-07)
(5.0273369e-06 -3.0875711e-06 -3.5633406e-07)
(3.5208318e-06 -5.0122699e-06 -4.9020368e-07)
(4.1083553e-06 3.7068914e-06 3.6021826e-07)
(5.258389e-06 1.689969e-06 2.9196619e-08)
(5.4663874e-06 -5.8915826e-07 -2.9525796e-07)
(4.8012994e-06 -2.8020545e-06 -5.9651635e-07)
(3.3906983e-06 -4.6369879e-06 -8.2660223e-07)
(3.7061282e-06 3.435596e-06 5.1002077e-07)
(4.8863789e-06 1.6645046e-06 6.8469951e-08)
(5.1063405e-06 -3.9037785e-07 -3.442192e-07)
(4.4959927e-06 -2.4153931e-06 -7.0148669e-07)
(3.2151881e-06 -4.1165855e-06 -9.5060539e-07)
)
;
    }
    procBoundary3to12
    {
        type            processor;
        value           nonuniform List<vector> 
25
(
(2.4462226e-05 2.1761239e-05 5.8693425e-06)
(2.9348706e-05 9.7303556e-06 1.996104e-07)
(2.923786e-05 -1.9201569e-07 -4.7021651e-06)
(2.6764298e-05 -8.4999279e-06 -9.2744206e-06)
(2.1825537e-05 -1.7210349e-05 -1.3726476e-05)
(1.6159392e-05 1.5363492e-05 3.6172229e-06)
(2.0236186e-05 7.5106677e-06 1.9893076e-07)
(2.0894017e-05 -1.4032988e-07 -2.9029577e-06)
(1.9092838e-05 -7.1361183e-06 -5.7207223e-06)
(1.4930009e-05 -1.3583766e-05 -8.2453244e-06)
(1.0768707e-05 1.0640109e-05 2.1578468e-06)
(1.3844884e-05 5.4032237e-06 1.3821061e-07)
(1.4591073e-05 -1.4703057e-07 -1.748373e-06)
(1.3320861e-05 -5.4306227e-06 -3.4444644e-06)
(1.0133294e-05 -1.0090723e-05 -4.8510064e-06)
(7.2113115e-06 7.2428463e-06 1.2542625e-06)
(9.4490462e-06 3.76646e-06 9.2353284e-08)
(1.006017e-05 -1.1858548e-07 -1.0373672e-06)
(9.1491457e-06 -3.9301939e-06 -2.0405504e-06)
(6.8253502e-06 -7.2347214e-06 -2.8161805e-06)
(4.8532681e-06 4.9399302e-06 7.1325528e-07)
(6.483452e-06 2.586862e-06 3.3008865e-08)
(6.8944195e-06 -1.0496692e-07 -6.3419864e-07)
(6.2047254e-06 -2.7768776e-06 -1.2116263e-06)
(4.5608406e-06 -5.0591994e-06 -1.6370338e-06)
)
;
    }
    procBoundary3to21throughfront
    {
        type            processorCyclic;
        value           nonuniform List<vector> 
25
(
(4.2953316e-05 2.3340358e-05 -2.4107116e-06)
(2.6278688e-05 1.780193e-05 -1.7689072e-06)
(1.6319868e-05 1.2782408e-05 -1.1445621e-06)
(1.0265052e-05 8.7943893e-06 -7.0380401e-07)
(6.5633706e-06 5.8781139e-06 -4.2586643e-07)
(4.3690957e-05 1.2872297e-06 1.6168294e-06)
(2.8741211e-05 4.2789352e-06 6.5695629e-07)
(1.8863196e-05 4.2748349e-06 2.7568215e-07)
(1.2369742e-05 3.4018194e-06 1.1773852e-07)
(8.1272461e-06 2.4964941e-06 7.8143807e-08)
(3.7776279e-05 -1.4669937e-05 4.9429843e-06)
(2.6889825e-05 -7.0258292e-06 2.8664587e-06)
(1.8482832e-05 -3.58906e-06 1.623053e-06)
(1.2484376e-05 -1.9415609e-06 9.2618863e-07)
(8.3631236e-06 -1.0508127e-06 5.8941279e-07)
(3.1457079e-05 -2.1435999e-05 8.6940449e-06)
(2.3187863e-05 -1.5014511e-05 5.0649408e-06)
(1.6174321e-05 -1.0130614e-05 2.9101146e-06)
(1.0988589e-05 -6.7178892e-06 1.6771585e-06)
(7.3480009e-06 -4.3610877e-06 1.0249134e-06)
(2.7736915e-05 -2.8602376e-05 1.2734079e-05)
(1.8496528e-05 -2.2308587e-05 7.1842645e-06)
(1.2241655e-05 -1.5788333e-05 4.0387535e-06)
(8.0478364e-06 -1.076788e-05 2.2764986e-06)
(5.2952522e-06 -7.1321436e-06 1.3378266e-06)
)
;
    }
}


// ************************************************************************* //
