/*--------------------------------*- C++ -*----------------------------------*\
| =========                 |                                                 |
| \\      /  F ield         | OpenFOAM: The Open Source CFD Toolbox           |
|  \\    /   O peration     | Version:  3.0.1                                 |
|   \\  /    A nd           | Web:      www.OpenFOAM.org                      |
|    \\/     M anipulation  |                                                 |
\*---------------------------------------------------------------------------*/
FoamFile
{
    version     2.0;
    format      ascii;
    class       volScalarField;
    location    "0.1";
    object      p;
}
// * * * * * * * * * * * * * * * * * * * * * * * * * * * * * * * * * * * * * //

dimensions      [0 2 -2 0 0 0 0];

internalField   nonuniform List<scalar> 
125
(
-0.11864219
-0.056873522
-0.043731276
0.025812168
0.041901208
-0.097159647
-0.064644272
-0.035761243
-0.0043167196
-0.00059698163
-0.07968583
-0.062789875
-0.042784128
-0.025840271
-0.022320015
-0.068654147
-0.05950713
-0.0478039
-0.038155929
-0.034875234
-0.062205696
-0.057034624
-0.05037559
-0.044723225
-0.042117572
-0.18342918
0.017816885
0.038429595
0.14786676
0.080112373
-0.12825252
-0.069576312
-0.01029314
0.044641071
0.026151853
-0.09272752
-0.068071779
-0.034667569
-0.0083459227
-0.0096199288
-0.074001208
-0.061821083
-0.045002297
-0.031771866
-0.029261971
-0.064456048
-0.057979374
-0.049330159
-0.042242779
-0.039606826
-0.32297447
-0.52706213
0.075171593
0.5437474
0.14816676
-0.17105177
-0.1641262
-0.0047734812
0.1169314
0.052629569
-0.10607053
-0.08688315
-0.033517134
0.0071756346
-0.00034257746
-0.078655185
-0.066366003
-0.044669507
-0.027647276
-0.025733352
-0.066319828
-0.059369905
-0.049206099
-0.040864891
-0.038084021
-0.27398202
-0.23166681
0.067549002
0.19691855
0.073316291
-0.15509608
-0.12516711
-0.012742291
0.057953634
0.029961863
-0.10285234
-0.083064572
-0.037355159
-0.0040044639
-0.0060995516
-0.078553659
-0.066804098
-0.04629169
-0.030032396
-0.026977484
-0.066717172
-0.059963955
-0.049876469
-0.041409225
-0.038222293
-0.17253821
-0.13805715
-0.018786652
0.080566098
0.045621648
-0.1272003
-0.10433583
-0.034667972
0.020761487
0.013762378
-0.095078617
-0.07938167
-0.044482882
-0.015685959
-0.012603371
-0.07650463
-0.066588105
-0.048991628
-0.033870084
-0.029331072
-0.066268284
-0.060241955
-0.050983453
-0.042752774
-0.039052126
)
;

boundaryField
{
    movingWall
    {
        type            zeroGradient;
    }
    CPLReceiveMD
    {
        type            zeroGradient;
    }
    streamwiseIn
    {
        type            cyclic;
    }
    streamwiseOut
    {
        type            cyclic;
    }
    front
    {
        type            cyclic;
    }
    back
    {
        type            cyclic;
    }
    procBoundary20to2throughback
    {
        type            processorCyclic;
        value           nonuniform List<scalar> 
25
(
-0.16544806
-0.12094613
-0.091895878
-0.075182239
-0.06577691
-0.25138841
-0.12160729
-0.08270768
-0.067593661
-0.060676592
-0.039827544
-0.048399754
-0.050772475
-0.051710503
-0.052168822
0.16522427
0.022684086
-0.019944299
-0.036461164
-0.043994394
0.050961601
0.012984322
-0.014498812
-0.030644186
-0.039775303
)
;
    }
    procBoundary20to11
    {
        type            processor;
        value           nonuniform List<scalar> 
25
(
-0.098943395
-0.068850754
-0.047412438
-0.034195972
-0.029182553
-0.082072672
-0.065708026
-0.048728532
-0.034179965
-0.026610615
-0.071743683
-0.062029011
-0.049824364
-0.039133967
-0.033767975
-0.064900702
-0.058930426
-0.050971058
-0.043910918
-0.040170199
-0.060491525
-0.05675747
-0.051762316
-0.047238912
-0.04461675
)
;
    }
    procBoundary20to18throughstreamwiseOut
    {
        type            processorCyclic;
        value           nonuniform List<scalar> 
25
(
-0.0074815852
-0.01839134
-0.02920225
-0.03718143
-0.042566551
-0.002021808
-0.010176124
-0.023593481
-0.033962998
-0.040816537
0.003117366
-0.0050367413
-0.020424586
-0.032088595
-0.039703852
-0.0055406559
-0.011750983
-0.022603337
-0.032411895
-0.039525805
-0.011432523
-0.014064588
-0.023737458
-0.032857976
-0.039644216
)
;
    }
    procBoundary20to19
    {
        type            processor;
        value           nonuniform List<scalar> 
25
(
-0.15040477
-0.10967243
-0.085048085
-0.071634596
-0.064142295
-0.33665881
-0.15570878
-0.10028052
-0.077695515
-0.066797791
-0.22704758
-0.14980313
-0.10419196
-0.080618896
-0.068412117
-0.16269061
-0.13033778
-0.099289422
-0.07978162
-0.068525371
-0.1457639
-0.11524523
-0.092658803
-0.077353982
-0.067750746
)
;
    }
    procBoundary20to23
    {
        type            processor;
        value           nonuniform List<scalar> 
25
(
-0.058497994
-0.055467425
-0.051600935
-0.04819576
-0.046296796
-0.059477923
-0.055856169
-0.051174736
-0.047161368
-0.045133584
-0.06030372
-0.056376834
-0.051117095
-0.046601147
-0.044407599
-0.060640603
-0.056734746
-0.051393943
-0.046707727
-0.044314317
-0.060615556
-0.056981374
-0.051875382
-0.047203655
-0.044587777
)
;
    }
}


// ************************************************************************* //
