/*--------------------------------*- C++ -*----------------------------------*\
| =========                 |                                                 |
| \\      /  F ield         | OpenFOAM: The Open Source CFD Toolbox           |
|  \\    /   O peration     | Version:  3.0.1                                 |
|   \\  /    A nd           | Web:      www.OpenFOAM.org                      |
|    \\/     M anipulation  |                                                 |
\*---------------------------------------------------------------------------*/
FoamFile
{
    version     2.0;
    format      ascii;
    class       surfaceScalarField;
    location    "0.1";
    object      phi;
}
// * * * * * * * * * * * * * * * * * * * * * * * * * * * * * * * * * * * * * //

dimensions      [0 3 -1 0 0 0 0];

internalField   nonuniform List<scalar> 
300
(
-0.060319376
-0.042941663
0.12950207
0.049281656
0.015528816
-0.14901895
0.22179733
-0.015886342
-0.16411447
0.28546267
0.060219395
-0.24386582
0.084908533
-0.076426689
-0.064995491
-0.034945345
0.062182754
-0.057749772
-0.0037022829
0.0099266819
-0.062774484
0.014050643
-0.05091171
-0.0073636771
0.043043785
-0.097918143
0.043437305
-0.053496096
-0.033783811
-0.022065793
0.026079864
-0.040004792
-0.0065644464
0.010570602
-0.033878122
0.010038772
-0.016227056
-0.0070413867
0.02463389
-0.034983936
0.025113903
-0.025396271
-0.018289167
-0.012899514
0.010692911
-0.023400615
-0.0049458473
0.004628597
-0.019290495
0.0051435751
-0.0056014607
-0.0065600183
0.013136613
-0.012765865
0.014487173
-0.011224741
-0.010338392
0.0045006929
-0.013313306
0.0018899055
-0.01130018
-0.0020900763
-0.0052084705
-0.0049599995
-0.0050209542
1.5108408
-0.11028413
0.27872234
0.099579014
0.174422
1.0879234
-0.088632362
0.097382882
-0.073357008
0.25165496
0.20632121
-0.79046058
0.1078505
-0.13596125
-0.11685008
-0.071049193
0.085546833
-0.11852486
-0.0030570958
0.18893304
-0.10978204
0.04875549
-0.011043536
0.036967287
0.10598815
-0.14446405
0.07154019
-0.052917842
-0.049303249
-0.037458832
0.026674186
-0.066794326
-0.01249652
0.03759624
-0.052625975
0.020675117
-0.002302119
0.0025384744
0.046864262
-0.031024296
0.039289455
-0.018545548
-0.024355298
-0.019094613
0.0093056492
-0.033629134
-0.0076845793
0.0090855252
-0.026453357
0.0086579074
-0.00066573303
-0.0050205676
0.020947386
-0.0082458321
0.020693602
-0.0070551384
-0.012949535
0.0037272985
-0.017292978
0.0027804848
-0.014169898
-0.00024797355
-0.0052699043
-0.0027549835
-0.0030450358
1.0149268
-0.30358957
-0.097859036
3.4176457
-0.72483981
-0.58971329
3.1693052
0.15971691
0.015264551
0.83381577
0.85251326
0.69247043
0.1909611
0.14950365
-0.013790839
-0.12997084
-0.031874504
-0.31740697
-0.15440692
-0.077802963
-0.24227102
0.057479697
0.015939193
0.12847223
0.21943813
0.11784177
0.10595616
0.045295276
-0.038383054
-0.054848306
-0.0064258248
-0.10669473
-0.041066856
-0.0076189412
-0.081356649
0.022312647
0.0076754922
0.01501147
0.069685402
0.022341123
0.05079231
0.011503724
-0.024575859
-0.024678307
-0.00020019685
-0.043380384
-0.014000036
0.00087920821
-0.034034613
0.0090757954
0.0032439478
-0.0038312505
0.026445817
0.0047666489
0.024707026
0.0024857587
-0.013896439
0.0007953173
-0.02032132
0.0011884185
-0.016677029
0.0013404814
-0.0055602885
0.0010880245
0.00027625933
0.61920216
-0.23753767
-0.20262694
0.429179
-0.21281822
-0.18691319
0.11154395
0.1603877
0.17242475
0.29389461
0.27770897
0.23241446
0.086675904
0.05538382
-0.059701834
-0.10447686
-0.05576463
-0.22449815
-0.084214548
-0.041645461
-0.14125455
0.049213596
0.043836226
0.055933569
0.12392551
0.074372596
0.072121422
0.03239498
-0.039576325
-0.048610337
-0.015539142
-0.091388558
-0.032534337
-0.0073593433
-0.066682389
0.017879947
0.0142533
0.0041758792
0.052071304
0.023357862
0.041759694
0.013004504
-0.023496333
-0.023679662
-0.0040955499
-0.041013233
-0.013685836
-0.00043025161
-0.032509949
0.0071713548
0.0053993096
-0.0061116764
0.022760051
0.0076736865
0.022493579
0.0047060911
-0.013503213
-0.00089726134
-0.020168713
0.00055615672
-0.016928962
0.0022136262
-0.0063719017
0.0026866666
0.0016596721
0.16450512
-0.090623684
-0.18118684
-0.067429647
-0.082565586
0.031750418
0.199209
0.11953956
0.063677199
-0.045678476
-0.064242976
-0.13927417
-0.049918394
-0.11079173
0.019632451
0.014002286
0.072897844
0.052722307
-0.031393719
-0.037154232
-0.069777466
-0.025593439
-0.057577731
0.009018065
-0.006172323
0.036374021
0.033456515
-0.019830722
-0.020477957
-0.035183594
-0.012696711
-0.030234992
0.0039836415
-0.0090780587
0.017768817
0.019444884
-0.012049712
-0.018511103
-0.016455564
-0.0073985071
)
;

boundaryField
{
    movingWall
    {
        type            calculated;
        value           nonuniform 0();
    }
    CPLReceiveMD
    {
        type            calculated;
        value           uniform 0;
    }
    streamwiseIn
    {
        type            cyclic;
        value           nonuniform 0();
    }
    streamwiseOut
    {
        type            cyclic;
        value           nonuniform 0();
    }
    front
    {
        type            cyclic;
        value           nonuniform 0();
    }
    back
    {
        type            cyclic;
        value           nonuniform 0();
    }
    procBoundary20to2throughback
    {
        type            processorCyclic;
        value           nonuniform List<scalar> 
25
(
-0.014197159
-0.012522792
-0.0063674494
-0.0026449532
-0.00098277336
0.22624384
0.034502662
0.0066465491
0.0020103325
0.00086910339
0.042087614
0.027473616
0.012580644
0.0054377931
0.0023706386
-0.16892542
-0.00380029
0.0085235242
0.0051831308
0.0024834112
-0.010656149
0.0015679653
0.0037939075
0.002627112
0.0014466901
)
;
    }
    procBoundary20to11
    {
        type            processor;
        value           nonuniform List<scalar> 
25
(
-0.039405279
0.023866413
0.0074368438
0.11996699
0.14200236
-0.030179617
0.0021236793
0.025941988
0.059731353
0.052014825
-0.015884678
-0.0015236546
0.014079921
0.026586567
0.022892695
-0.0075068361
-0.0011541866
0.0063334807
0.01150902
0.010588856
-0.0034285459
-0.00055485015
0.0027729101
0.0050309279
0.0049981156
)
;
    }
    procBoundary20to18throughstreamwiseOut
    {
        type            processorCyclic;
        value           nonuniform List<scalar> 
25
(
0.13494482
0.035582724
0.013759951
0.0046116651
0.00089915635
0.20332438
0.072646712
0.027939057
0.0093995501
0.0024196828
0.35741209
0.11534068
0.040154282
0.012706787
0.0032393919
0.30131314
0.083451816
0.032998954
0.010865465
0.0026069784
0.20141252
0.055661169
0.022260394
0.0070512005
0.0011846756
)
;
    }
    procBoundary20to19
    {
        type            processor;
        value           nonuniform List<scalar> 
25
(
0.013214405
0.025000274
0.010721062
0.0059590987
0.0038715123
-1.5498404
0.054416803
0.015101658
0.0073871084
0.0046819283
-0.33472109
-0.042526059
-0.0037520946
0.0039281057
0.0041836166
-0.27686979
-0.049493963
-0.0071163236
0.0024577204
0.0036158528
-0.26226874
-0.023945492
-0.0048333052
0.0017003278
0.0029645021
)
;
    }
    procBoundary20to23
    {
        type            processor;
        value           nonuniform List<scalar> 
25
(
-0.0074168875
-0.0031352036
0.0024508199
0.0069461778
0.0083597925
-0.009958586
-0.0042475726
0.0036898617
0.009839412
0.011055559
-0.012035621
-0.0059886804
0.0038227715
0.011475818
0.012649817
-0.012156485
-0.0064607384
0.0030354713
0.010599605
0.012186368
-0.011308483
-0.0065232886
0.0017838829
0.0089035353
0.011073207
)
;
    }
}


// ************************************************************************* //
