/*--------------------------------*- C++ -*----------------------------------*\
| =========                 |                                                 |
| \\      /  F ield         | OpenFOAM: The Open Source CFD Toolbox           |
|  \\    /   O peration     | Version:  3.0.1                                 |
|   \\  /    A nd           | Web:      www.OpenFOAM.org                      |
|    \\/     M anipulation  |                                                 |
\*---------------------------------------------------------------------------*/
FoamFile
{
    version     2.0;
    format      ascii;
    class       volVectorField;
    location    "0.1";
    object      U;
}
// * * * * * * * * * * * * * * * * * * * * * * * * * * * * * * * * * * * * * //

dimensions      [0 1 -1 0 0 0 0];

internalField   nonuniform List<vector> 
125
(
(-6.3233852e-05 -5.3702154e-05 0.00021112102)
(-4.2125142e-05 1.9430489e-05 -0.00021600434)
(2.642305e-05 -1.9836069e-05 -0.00021450965)
(0.0013567228 7.5308233e-05 -0.00045491836)
(0.00010058163 0.00010615751 -0.00027302635)
(-0.0001125239 -9.7386796e-05 0.00011544927)
(-0.0001534547 1.4793824e-05 9.6711209e-06)
(-0.00015075557 -2.2792112e-06 -9.6088293e-05)
(-8.7514557e-05 0.00012911699 -0.00019705167)
(3.5192702e-05 0.00016046519 -0.00013190419)
(-5.5641702e-05 -7.1265531e-05 5.2459317e-05)
(-9.224913e-05 -1.284393e-05 1.5106458e-05)
(-9.2368733e-05 3.010599e-05 -3.789187e-05)
(-5.1156399e-05 8.4597801e-05 -7.6969962e-05)
(8.4080019e-06 8.5696232e-05 -6.0369394e-05)
(-3.0313945e-05 -4.3703732e-05 2.2752127e-05)
(-5.2119524e-05 -1.4390218e-05 7.2272566e-06)
(-5.3372137e-05 1.8977117e-05 -1.4921581e-05)
(-3.2316443e-05 4.7207523e-05 -3.0347606e-05)
(-2.4316867e-06 4.9496186e-05 -2.7270792e-05)
(-1.776393e-05 -2.5393145e-05 9.91288e-06)
(-2.956829e-05 -1.0101702e-05 3.0562142e-06)
(-3.0771007e-05 9.490975e-06 -6.0795559e-06)
(-2.0637428e-05 2.5099607e-05 -1.2490311e-05)
(-5.3851509e-06 2.855567e-05 -1.2525566e-05)
(0.0080813344 -0.00013792568 0.00051043505)
(4.3495394e-05 0.00021792966 0.0011736363)
(-0.00021806804 0.00012180257 -0.00029685736)
(0.00043878446 0.0002580585 -0.0012929348)
(0.000413172 0.00013487695 -0.00026562275)
(-0.00021308976 -0.00022673871 0.00018473182)
(-0.0002947428 0.00021416758 0.00024870431)
(-0.00028551024 0.0001827382 -7.7468609e-05)
(-9.0972454e-05 0.00039052555 -0.00030311816)
(0.00013705535 0.00022430621 -0.00013306426)
(-8.0517773e-05 -0.00013562904 6.5962406e-05)
(-0.00014514408 -1.9389245e-05 6.0233887e-05)
(-0.00014930925 8.6772156e-05 -2.3167407e-05)
(-6.2614714e-05 0.00019103188 -8.2539225e-05)
(3.8122595e-05 0.00013853453 -5.4942311e-05)
(-3.9681378e-05 -7.0680436e-05 2.5004242e-05)
(-7.2491627e-05 -2.5232271e-05 1.7148174e-05)
(-7.5117306e-05 3.665544e-05 -7.8354536e-06)
(-3.9345731e-05 8.4742296e-05 -2.6271171e-05)
(5.4819984e-06 7.4968545e-05 -2.2854559e-05)
(-2.2040809e-05 -3.6310643e-05 1.0287161e-05)
(-3.7808244e-05 -1.4914247e-05 5.8396041e-06)
(-3.9334687e-05 1.5429858e-05 -2.922807e-06)
(-2.4301643e-05 3.8473686e-05 -9.6453854e-06)
(-3.5600177e-06 3.9680422e-05 -1.0084174e-05)
(0.0010771169 -0.00037966141 0.00022608644)
(0.0017153058 -0.00090608724 0.00062274672)
(0.017718766 0.00019970035 -7.2558791e-05)
(-4.9183408e-05 0.0010657694 -0.00012246877)
(0.0014364113 0.00023884859 1.6932268e-05)
(3.5892197e-05 -0.00054211509 6.7112871e-05)
(-0.00041501347 -0.0010991946 0.00013897932)
(-0.00069754568 0.00027155883 6.1251752e-06)
(-0.00014346771 0.0013401576 -3.3279381e-05)
(0.0003049446 0.00037127795 -9.5222035e-06)
(-4.3269099e-05 -0.00023099314 2.5315379e-05)
(-0.00018137878 -0.00024440014 3.7484167e-05)
(-0.00023514059 9.9739164e-05 6.7200598e-06)
(-8.2931392e-05 0.00036144487 -1.085269e-05)
(6.9004258e-05 0.00019590595 -8.7999294e-06)
(-3.562812e-05 -9.9378977e-05 1.1383164e-05)
(-8.495922e-05 -6.87845e-05 1.2458702e-05)
(-9.6791481e-05 3.9221717e-05 3.2241111e-06)
(-4.7335548e-05 0.00012010136 -4.3483114e-06)
(1.1107053e-05 9.4354324e-05 -5.71093e-06)
(-2.2600715e-05 -4.5881598e-05 5.65371e-06)
(-4.2778259e-05 -2.4975094e-05 4.9618147e-06)
(-4.6255996e-05 1.6117786e-05 1.3660611e-06)
(-2.7798795e-05 4.7384676e-05 -2.0834457e-06)
(-2.8974007e-06 4.6687086e-05 -3.4606901e-06)
(0.00039263275 -0.0002970133 -0.00037575998)
(0.0024455942 -0.00026614894 -0.00097071424)
(0.00076530422 0.00020052103 0.00023460272)
(-1.3363664e-07 0.00034730835 0.0011561064)
(0.00072661411 0.00010841289 0.00025626432)
(-1.2869676e-05 -0.00042762349 -0.00010962357)
(-0.00035505676 -0.00037140622 -0.00014946995)
(-0.00045733732 0.00026205232 7.4740049e-05)
(-0.00010675169 0.00050220243 0.00024042703)
(0.00017432112 0.00019856468 9.7172713e-05)
(-4.0560138e-05 -0.00019135876 -2.7475318e-05)
(-0.00016373923 -0.00014590991 -1.8750051e-05)
(-0.000197646 8.3871096e-05 2.7416856e-05)
(-7.8134736e-05 0.00021996296 5.7155762e-05)
(4.6500192e-05 0.0001423458 3.0653346e-05)
(-3.2440688e-05 -9.0342104e-05 -5.3746597e-06)
(-8.065068e-05 -5.7754624e-05 5.5625471e-07)
(-9.1924319e-05 3.1301441e-05 1.0805872e-05)
(-4.8280772e-05 9.3511539e-05 1.5557639e-05)
(5.9523956e-06 8.0307784e-05 8.9952031e-06)
(-2.1399328e-05 -4.4786806e-05 -1.289329e-07)
(-4.2095893e-05 -2.5176293e-05 2.1795622e-06)
(-4.6379947e-05 1.2754154e-05 4.4431477e-06)
(-2.9128394e-05 4.1688555e-05 4.7202583e-06)
(-4.7028248e-06 4.3344183e-05 2.4218326e-06)
(0.00097384535 -0.00011333733 -0.00027100332)
(-0.00021005212 -8.4359955e-05 4.9013915e-05)
(-0.00043457138 3.9719779e-05 0.00026813038)
(0.00030719254 0.00014951265 7.9501658e-05)
(0.00040887372 7.9626413e-05 5.5896194e-05)
(-2.7023073e-05 -0.00019364324 -8.5371062e-05)
(-0.00023128406 -0.0001467472 -8.8948687e-06)
(-0.00031271088 6.425506e-05 8.9147091e-05)
(-0.00012095278 0.00024062935 8.8178018e-05)
(8.7118205e-05 0.00014553731 4.2452693e-05)
(-3.3190468e-05 -0.0001267442 -2.7388324e-05)
(-0.00012648677 -9.4373871e-05 -8.893155e-07)
(-0.00015923604 3.5804972e-05 3.3545532e-05)
(-7.9694881e-05 0.00013657541 3.985184e-05)
(2.0132166e-05 0.00010772842 2.1001162e-05)
(-2.6912064e-05 -7.2032591e-05 -8.4277508e-06)
(-6.8778688e-05 -4.7854887e-05 1.9745587e-06)
(-8.1790098e-05 1.6248009e-05 1.3547591e-05)
(-4.9146216e-05 6.7665858e-05 1.6072961e-05)
(-2.5261959e-06 6.612281e-05 9.1684776e-06)
(-1.8768056e-05 -3.9728195e-05 -2.3510227e-06)
(-3.8206178e-05 -2.4020696e-05 1.7811656e-06)
(-4.37153e-05 7.2074592e-06 5.73075e-06)
(-2.982011e-05 3.3334058e-05 6.4635894e-06)
(-7.764772e-06 3.8144155e-05 3.8839715e-06)
)
;

boundaryField
{
    movingWall
    {
        type            fixedValue;
        value           nonuniform 0();
    }
    CPLReceiveMD
    {
        type            fixedValue;
        value           nonuniform List<vector> 
25
(
(0.33693674 0 0)
(17.962695 0 0)
(0.65238559 0 0)
(0.43927372 0 0)
(1.9889793 0 0)
(0.28996599 0 0)
(1.1918091 0 0)
(5.4169002 0 0)
(6.6062434 0 0)
(0.34644244 0 0)
(0.46587331 0 0)
(0.2043676 0 0)
(40.852829 0 0)
(3.6665674 0 0)
(0.21944063 0 0)
(3.1459475 0 0)
(1.0868074 0 0)
(0.25670218 0 0)
(0.027735541 0 0)
(0.93761279 0 0)
(0.033889639 0 0)
(0.07705497 0 0)
(0.1736078 0 0)
(0.44200582 0 0)
(0.35809378 0 0)
)
;
    }
    streamwiseIn
    {
        type            cyclic;
    }
    streamwiseOut
    {
        type            cyclic;
    }
    front
    {
        type            cyclic;
    }
    back
    {
        type            cyclic;
    }
    procBoundary20to2throughback
    {
        type            processorCyclic;
        value           nonuniform List<vector> 
25
(
(0.00090628956 -0.00011124606 -5.943506e-05)
(4.5278299e-05 -0.00018387387 -2.7904298e-05)
(-1.1660254e-05 -0.00011441543 -1.2510765e-05)
(-1.8555777e-05 -6.5304803e-05 -5.4977196e-06)
(-1.5175682e-05 -3.6855894e-05 -2.3936994e-06)
(0.00018345118 -0.00032408388 0.00015061429)
(-0.00018123772 -0.00042133523 4.3609499e-05)
(-0.00010280555 -0.00013504048 1.405131e-05)
(-5.8675338e-05 -5.5084142e-05 5.1539696e-06)
(-3.401412e-05 -2.5992909e-05 2.1131986e-06)
(0.0054584671 2.1403928e-05 0.00016452327)
(-0.00035910189 2.7333278e-05 7.8859713e-05)
(-0.00015690455 8.2715795e-06 3.2316473e-05)
(-7.7825917e-05 3.4866593e-06 1.3236594e-05)
(-4.1697524e-05 1.7349547e-06 5.6504347e-06)
(-0.00011689884 0.00035594389 2.966662e-05)
(-0.00015342198 0.00046251181 3.8554688e-05)
(-9.06791e-05 0.0001478579 2.3167406e-05)
(-5.2659886e-05 6.0123289e-05 1.1783218e-05)
(-3.0975173e-05 2.8307642e-05 5.731333e-06)
(0.00049130651 9.4935201e-05 -4.6282106e-06)
(8.1141535e-05 0.00016363812 -2.6535714e-06)
(6.1918101e-06 0.00010906158 4.4148268e-06)
(-9.6093649e-06 6.3190594e-05 4.6503161e-06)
(-1.0731435e-05 3.5807861e-05 3.1783629e-06)
)
;
    }
    procBoundary20to11
    {
        type            processor;
        value           nonuniform List<vector> 
25
(
(-9.8295518e-06 -4.2148228e-05 8.949246e-05)
(0.00050961834 -7.8532708e-06 -3.2054083e-05)
(2.6187499e-05 3.2739341e-06 -6.0497607e-05)
(0.00032956477 -3.5072266e-08 -0.00026011442)
(0.0001377053 -6.3806171e-06 -0.00019150484)
(-4.473153e-05 -6.7971511e-05 5.4720572e-05)
(-8.319584e-05 -1.7050816e-05 -7.9734641e-06)
(-7.8787382e-05 6.0132813e-06 -5.9287703e-05)
(-5.5198409e-05 1.2350119e-05 -0.00011952889)
(-2.1141728e-05 1.1513402e-05 -8.9069021e-05)
(-2.8425376e-05 -4.2931877e-05 2.8324305e-05)
(-5.4792893e-05 -1.6945394e-05 -8.8596889e-07)
(-5.7232827e-05 5.6054304e-06 -3.1286411e-05)
(-4.01372e-05 2.4327792e-05 -5.3716701e-05)
(-1.1640758e-05 3.3901114e-05 -4.395406e-05)
(-1.8594108e-05 -2.8133999e-05 1.3637944e-05)
(-3.4817919e-05 -1.3182028e-05 1.891831e-07)
(-3.7542444e-05 4.8431256e-06 -1.4557775e-05)
(-2.699652e-05 2.0262644e-05 -2.4059081e-05)
(-8.8993432e-06 2.7124717e-05 -2.1605294e-05)
(-1.2371823e-05 -1.8021246e-05 6.3940284e-06)
(-2.1815808e-05 -8.9983032e-06 1.5366328e-07)
(-2.3788162e-05 3.1170894e-06 -6.619523e-06)
(-1.7855632e-05 1.3553854e-05 -1.0924712e-05)
(-7.2678186e-06 1.8340888e-05 -1.0604443e-05)
)
;
    }
    procBoundary20to18throughstreamwiseOut
    {
        type            processorCyclic;
        value           nonuniform List<vector> 
25
(
(0.00036731623 2.7278925e-05 -2.7741775e-05)
(9.1428819e-05 5.430693e-05 -3.8816599e-05)
(4.2353704e-05 4.6977874e-05 -2.72066e-05)
(1.8197451e-05 3.3414371e-05 -1.5966264e-05)
(6.9139213e-06 2.2260317e-05 -8.7825099e-06)
(0.00046560124 2.0407073e-05 -2.651294e-05)
(0.0001608269 5.395023e-05 -3.3383513e-05)
(7.1375846e-05 5.9468212e-05 -2.1942973e-05)
(2.8877183e-05 4.3059685e-05 -1.2732431e-05)
(1.0637721e-05 2.7919923e-05 -7.1576352e-06)
(0.0007774277 2.0420634e-05 8.823307e-06)
(0.00024067323 5.8889455e-05 3.9409295e-06)
(9.6388933e-05 6.7628957e-05 -2.4751048e-06)
(3.6340105e-05 4.8199709e-05 -3.8779142e-06)
(1.277675e-05 3.0970152e-05 -3.2262529e-06)
(0.00089773019 1.5517053e-05 3.6391786e-05)
(0.00020803895 4.264558e-05 2.257761e-05)
(8.773583e-05 5.1649368e-05 8.283665e-06)
(3.3652721e-05 4.2308537e-05 1.9243896e-06)
(1.1732884e-05 2.958574e-05 -1.4711311e-07)
(0.00050257454 6.5815059e-06 -1.3789219e-05)
(0.00013812704 3.0759269e-05 -4.9661301e-06)
(6.3169587e-05 4.6975733e-05 -4.5653266e-07)
(2.5242114e-05 3.9768931e-05 5.1120028e-07)
(8.6776e-06 2.8493416e-05 4.3497963e-07)
)
;
    }
    procBoundary20to19
    {
        type            processor;
        value           nonuniform List<vector> 
25
(
(0.00013721102 -0.00010183502 0.00060173176)
(2.7587131e-05 -0.00016339706 0.00018025325)
(1.0235244e-05 -9.5097036e-05 6.719941e-05)
(1.9236081e-06 -5.2268001e-05 2.8314526e-05)
(-1.2152124e-06 -2.9585877e-05 1.27252e-05)
(0.00042172744 -0.00045185968 0.00019149179)
(4.7135584e-05 -0.00059043104 0.00010032789)
(1.6079031e-05 -0.00019503592 4.7861294e-05)
(2.8974163e-06 -8.3709794e-05 2.2462349e-05)
(-1.5058485e-06 -4.162975e-05 1.0676389e-05)
(0.00085922547 -0.00019309398 -0.00043414224)
(0.00015152392 -0.00030712306 -6.3423683e-05)
(4.2362191e-05 -0.00017296259 -2.4740128e-06)
(9.1694914e-06 -8.9452906e-05 5.218012e-06)
(-1.0317548e-07 -4.6817409e-05 4.3203339e-06)
(0.00047778049 -8.0924198e-05 -0.000203125)
(0.0001378649 -0.0001585465 -8.6389553e-05)
(4.2229931e-05 -0.0001263942 -2.8828642e-05)
(1.060907e-05 -7.6915447e-05 -8.1598012e-06)
(7.9990571e-07 -4.4131042e-05 -1.6530975e-06)
(0.00023403048 -7.6258556e-05 -0.00011349436)
(8.8052628e-05 -0.00013272638 -6.6955358e-05)
(3.3736092e-05 -9.4732824e-05 -2.9789178e-05)
(1.0246414e-05 -6.2277361e-05 -1.1910352e-05)
(1.4810893e-06 -3.8607197e-05 -4.4424801e-06)
)
;
    }
    procBoundary20to23
    {
        type            processor;
        value           nonuniform List<vector> 
25
(
(-1.082977e-05 -1.4736069e-05 4.4627299e-06)
(-1.7235404e-05 -6.3914521e-06 1.3113128e-06)
(-1.8170828e-05 4.4905681e-06 -2.6088127e-06)
(-1.3251748e-05 1.3372577e-05 -5.4277734e-06)
(-5.2709763e-06 1.6567047e-05 -5.9312576e-06)
(-1.2965875e-05 -1.9220043e-05 4.5157893e-06)
(-2.0751126e-05 -8.3320004e-06 2.2747823e-06)
(-2.1729373e-05 6.6195211e-06 -1.208643e-06)
(-1.5095167e-05 1.8392424e-05 -3.9861018e-06)
(-5.0717649e-06 2.1416103e-05 -4.723143e-06)
(-1.3785805e-05 -2.2899737e-05 2.9070015e-06)
(-2.2959836e-05 -1.1249779e-05 2.1966559e-06)
(-2.4431712e-05 6.855511e-06 5.4840736e-07)
(-1.6766248e-05 2.1190798e-05 -1.1334431e-06)
(-5.3074708e-06 2.428277e-05 -2.0471688e-06)
(-1.3485939e-05 -2.3355675e-05 7.7874362e-07)
(-2.310972e-05 -1.2245411e-05 1.5106528e-06)
(-2.5059472e-05 5.4808409e-06 1.8955452e-06)
(-1.7690743e-05 1.9843512e-05 1.5070212e-06)
(-6.150419e-06 2.3669912e-05 4.5227217e-07)
(-1.2325563e-05 -2.2107565e-05 -4.9683834e-07)
(-2.1843034e-05 -1.2563413e-05 1.1579421e-06)
(-2.4435344e-05 3.2476075e-06 2.5283922e-06)
(-1.8209521e-05 1.6957875e-05 2.692048e-06)
(-7.3668385e-06 2.1815468e-05 1.6321548e-06)
)
;
    }
}


// ************************************************************************* //
