/*--------------------------------*- C++ -*----------------------------------*\
| =========                 |                                                 |
| \\      /  F ield         | OpenFOAM: The Open Source CFD Toolbox           |
|  \\    /   O peration     | Version:  3.0.1                                 |
|   \\  /    A nd           | Web:      www.OpenFOAM.org                      |
|    \\/     M anipulation  |                                                 |
\*---------------------------------------------------------------------------*/
FoamFile
{
    version     2.0;
    format      ascii;
    class       volScalarField;
    location    "0.2";
    object      p;
}
// * * * * * * * * * * * * * * * * * * * * * * * * * * * * * * * * * * * * * //

dimensions      [0 2 -2 0 0 0 0];

internalField   nonuniform List<scalar> 
3375
(
2.5129727e-05
-0.12527264
-0.45885837
-0.0084033493
0.39376187
-0.051033241
-0.29307246
-0.52784433
-0.49298631
0.27707905
0.73300921
0.46963121
0.34268446
0.25316662
0.09167064
0.021925246
-0.040071434
-0.10039028
-0.0090965908
0.058191527
-0.058515342
-0.17789332
-0.27016104
-0.19579007
0.15341613
0.38786134
0.32787667
0.24437779
0.16989887
0.084475442
0.037611158
0.0044140186
-0.015926781
-0.0029131891
0.0013962027
-0.040481404
-0.089098818
-0.11121519
-0.055246066
0.090908324
0.1989156
0.20096826
0.1685537
0.12711916
0.078312697
0.044161914
0.023817841
0.010668089
0.0067425258
0.00049582787
-0.01712091
-0.034234577
-0.034415219
-0.00038549936
0.064061751
0.11532922
0.12805744
0.11760991
0.096252104
0.069483263
0.045498179
0.032259876
0.022432496
0.016002941
0.0096937936
0.0017657241
-0.0032622468
0.0014820293
0.021274795
0.052019497
0.077930999
0.088562962
0.086277282
0.075823306
0.061022799
0.044773177
0.035990443
0.028794609
0.023270096
0.01866916
0.014948675
0.014106469
0.018823511
0.030390032
0.046213064
0.060115712
0.067322794
0.067558374
0.062505009
0.054200793
0.043454694
0.037668766
0.032597702
0.028509475
0.025416845
0.023627889
0.024020656
0.027599879
0.034502984
0.043215399
0.051030568
0.055641656
0.056459245
0.053989143
0.0492476
0.042198581
0.038415114
0.034947833
0.032096865
0.030072185
0.029178528
0.029816207
0.032316881
0.036524179
0.0415576
0.046129419
0.049036918
0.049821604
0.04858355
0.045812967
0.041221942
0.038752663
0.036418624
0.034485731
0.033175496
0.032713317
0.033290837
0.034978621
0.037588527
0.040600668
0.043365037
0.045203811
0.045805827
0.04515705
0.04350332
0.040533252
0.038906999
0.037337238
0.036047207
0.035214543
0.034983788
0.035424172
0.036543512
0.038192391
0.040056262
0.041750373
0.042918665
0.043337451
0.042982897
0.041984981
0.040074857
0.038997479
0.037945508
0.037086198
0.03655471
0.036415652
0.036738346
0.037476855
0.038533493
0.039715651
0.040791876
0.041535523
0.041825531
0.041629408
0.041001953
0.039767469
0.039032259
0.038318326
0.037745994
0.037405815
0.03733009
0.037571348
0.038072919
0.038758407
0.039505545
0.040203039
0.04068943
0.040897887
0.040792622
0.040391001
0.03958264
0.039063512
0.038564665
0.038171488
0.037943374
0.037900282
0.038075839
0.038422066
0.038880697
0.039375217
0.039845224
0.040186593
0.04034496
0.040286041
0.0400146
0.039484001
0.039098259
0.038729185
0.038436608
0.038262763
0.038234976
0.038355686
0.038603695
0.038935957
0.039300387
0.039641822
0.03990339
0.040030922
0.03999555
0.039799461
0.039444318
0.039124845
0.038815407
0.038564695
0.038408986
0.038388197
0.038478118
0.038679237
0.038956637
0.039266815
0.039548953
0.039773392
0.039886346
0.039862328
0.039702238
-0.010918908
-0.10269266
-0.11619607
0.018745245
0.065308732
-0.1216619
-0.49131318
-1.4723667
-1.9369263
0.90464985
2.3219924
0.84673097
0.39747895
0.20613626
0.07733288
0.019697908
-0.032848093
-0.043879571
0.00063887881
0.0020591338
-0.096421589
-0.25906462
-0.48209138
-0.44498993
0.25872075
0.6805041
0.45096636
0.28119421
0.17124956
0.084669979
0.038257708
0.0068715932
-0.0056144698
-0.0020930683
-0.011432508
-0.055093294
-0.11740264
-0.16319604
-0.10434258
0.10988238
0.25895178
0.23799594
0.18443666
0.13213826
0.08156099
0.045280459
0.024900577
0.012730261
0.0062545946
-0.0037457075
-0.023483251
-0.044548287
-0.048971492
-0.01181017
0.067716804
0.1292383
0.13940931
0.12428309
0.10006514
0.072037166
0.046441723
0.032850925
0.022865081
0.015478201
0.0078563322
-0.0011274241
-0.0073361929
-0.0032198855
0.018047452
0.05276238
0.081624554
0.092397363
0.089175819
0.077937269
0.062517727
0.0453413
0.036320465
0.028878896
0.022907103
0.01773124
0.013598497
0.012372398
0.017059036
0.029264937
0.046359497
0.061249133
0.068772206
0.068889432
0.063608733
0.055049213
0.043787534
0.037839341
0.032602062
0.028292026
0.024944134
0.02295111
0.023231045
0.026856423
0.034039756
0.043222865
0.051428724
0.056241888
0.057083173
0.054553849
0.04971484
0.04240174
0.03851474
0.034949133
0.031978476
0.029828928
0.028837934
0.029436655
0.03197047
0.036306859
0.041537689
0.046275096
0.049297452
0.050120833
0.04887569
0.04607527
0.041343731
0.038817927
0.036422048
0.034424101
0.033052885
0.03254333
0.033101622
0.034808886
0.037480833
0.040586685
0.043421342
0.045320965
0.045951751
0.045309933
0.043648014
0.040595723
0.038937985
0.037338763
0.036015639
0.035148132
0.03488648
0.035327686
0.036460487
0.038138392
0.040050836
0.041785477
0.04298215
0.043423504
0.043075912
0.04205982
0.040100592
0.039003857
0.037937139
0.037062486
0.036510328
0.036368613
0.036695082
0.037444264
0.038512597
0.039716235
0.040809289
0.041569703
0.041874364
0.041681431
0.041040662
0.039784278
0.039043102
0.03832408
0.037743166
0.037389825
0.037312442
0.037546475
0.038046808
0.038737501
0.039499226
0.040203392
0.040706658
0.040924104
0.040818736
0.040412241
0.039590233
0.039074118
0.038576103
0.038178689
0.037944542
0.037898294
0.038063742
0.038403479
0.038863865
0.039368577
0.039843559
0.040193347
0.040356059
0.040297456
0.040023746
0.039482956
0.039101846
0.038733762
0.038441357
0.038270698
0.038238224
0.038354536
0.038597766
0.038929282
0.039297003
0.039643965
0.039907464
0.040037332
0.040001649
0.039801567
0.039438477
0.039120017
0.03881126
0.0385654
0.038419861
0.038393952
0.038484186
0.038682281
0.03895674
0.039265316
0.039553472
0.039779418
0.039893661
0.039867341
0.039701597
-0.01447272
-0.20557381
-0.024452622
0.18847733
0.029745556
-0.1155785
-0.3069179
-0.55871874
-0.53625395
0.27570757
0.75314255
0.42460034
0.28275371
0.25627586
0.1398635
0.023941001
-0.034670125
-0.0094023189
0.033677179
-0.0065074673
-0.085287343
-0.18918113
-0.28121125
-0.20865069
0.14653616
0.3848553
0.31401716
0.2335634
0.17263982
0.098142944
0.042171321
0.012046735
0.0061371264
0.0078321684
-0.011448214
-0.049321945
-0.09368976
-0.11580873
-0.060735038
0.086539652
0.19539725
0.19384772
0.16246377
0.12921841
0.085978675
0.047273523
0.028064292
0.017305896
0.0099230971
-0.002226363
-0.020043264
-0.03634569
-0.036594268
-0.0028796759
0.061484343
0.1128228
0.12479817
0.11527331
0.097266968
0.072876515
0.047314172
0.034397726
0.024840082
0.017192212
0.009115465
0.00071292986
-0.0043002681
0.00037977133
0.020008447
0.050614142
0.076380063
0.087032942
0.085344553
0.076217105
0.062412146
0.045703071
0.037055129
0.029826656
0.023813768
0.018543895
0.014580034
0.013607952
0.018214851
0.029663738
0.045430327
0.059233052
0.066553869
0.06714731
0.062665821
0.054849989
0.043942098
0.038202749
0.033092069
0.028793284
0.025429677
0.023474361
0.023766642
0.027261341
0.034085953
0.042755483
0.050544655
0.055236376
0.056244465
0.054049934
0.049573302
0.042471623
0.03870369
0.035211984
0.032265605
0.030121948
0.029127981
0.029688342
0.03212543
0.036279366
0.041284741
0.045845006
0.048810306
0.049697863
0.048603017
0.045982411
0.041372762
0.038917231
0.036567536
0.034592762
0.033227038
0.032707504
0.033230887
0.034873037
0.03744796
0.040451536
0.043200558
0.045070866
0.045728379
0.045159618
0.043587508
0.040614596
0.038998637
0.037428617
0.036118073
0.035250373
0.034978302
0.035395222
0.036486817
0.038112958
0.039972247
0.041662669
0.042846811
0.04330597
0.042998536
0.042033726
0.040116966
0.039041325
0.037992236
0.037126131
0.036573796
0.036424116
0.036733906
0.037457549
0.038494504
0.039664081
0.040742003
0.041495416
0.041810805
0.041639956
0.041029704
0.039797306
0.039070943
0.038363889
0.03778966
0.037437523
0.037354948
0.037572336
0.038052858
0.038723321
0.039467515
0.040160437
0.040663485
0.040889441
0.040797271
0.040408215
0.039599266
0.039095065
0.038605734
0.038215036
0.03798522
0.037935828
0.038085796
0.038409354
0.038855091
0.039349452
0.039816439
0.040166792
0.040335616
0.040285175
0.040021275
0.039489361
0.039116069
0.038754695
0.03847026
0.038307414
0.038272788
0.038377416
0.038607048
0.038925163
0.039282217
0.039624333
0.0398896
0.040024649
0.039994579
0.039800942
0.039443515
0.039130503
0.038828237
0.038591275
0.038455319
0.038426532
0.038507401
0.038693183
0.038954167
0.039250239
0.039536255
0.039765148
0.039883786
0.039862249
0.039702425
0.027936709
-0.030111846
-0.00011967301
0.040960439
-0.02219878
-0.07622021
-0.13650683
-0.21986624
-0.16827259
0.113845
0.31543519
0.21328992
0.20410309
0.23797535
0.099936306
0.038802739
0.0048183918
0.0067923959
0.015884558
-0.01172426
-0.054182082
-0.10182998
-0.13226002
-0.076244651
0.084184625
0.20876041
0.20059182
0.17532287
0.1461379
0.087597364
0.046762832
0.023716925
0.015081836
0.010145215
-0.0072340788
-0.031148425
-0.05395446
-0.05998405
-0.018538549
0.066265928
0.13278655
0.14332479
0.13252362
0.11196917
0.079350691
0.048612887
0.03246632
0.022119886
0.013903954
0.0027902384
-0.010005862
-0.01934596
-0.015932521
0.01031664
0.053829947
0.089886906
0.10249331
0.099845504
0.088145432
0.069252508
0.047637145
0.036312004
0.027465085
0.020072698
0.012694233
0.0061085679
0.0031578607
0.0081865521
0.02417196
0.047384965
0.06734992
0.077126813
0.077580747
0.071342576
0.060328114
0.045703562
0.03796388
0.031286033
0.025613556
0.020772992
0.017450677
0.01701063
0.021311448
0.031010335
0.043914647
0.055382479
0.062011791
0.063257091
0.060045843
0.053603096
0.043864291
0.038650601
0.033902244
0.029862127
0.026732508
0.02500756
0.025377321
0.028561094
0.034528088
0.041992337
0.048771249
0.053069892
0.054275802
0.052637798
0.048840232
0.042394171
0.038932152
0.035666117
0.032888709
0.030869642
0.029952954
0.03048217
0.032700984
0.036420779
0.040885636
0.044981155
0.047736969
0.04867993
0.047833184
0.045552572
0.041318477
0.039040856
0.036828829
0.034955213
0.033655928
0.033159205
0.033635998
0.035138979
0.037488149
0.040232362
0.042754575
0.044515563
0.045190227
0.044741616
0.043345465
0.040589228
0.039074061
0.037584189
0.036334418
0.035502808
0.035234338
0.035608894
0.036615487
0.038117446
0.039838744
0.041409207
0.042542812
0.043014305
0.04277392
0.041910748
0.040116446
0.03909242
0.038088643
0.037259048
0.036728551
0.036573513
0.036851488
0.037522794
0.038487952
0.039574053
0.040601808
0.041327563
0.041649318
0.041515663
0.040962876
0.039799819
0.039104402
0.038425787
0.037875341
0.03753715
0.03745041
0.037645159
0.038091589
0.038718636
0.039417664
0.040080563
0.04056884
0.040800696
0.040730897
0.040373126
0.039606812
0.039120944
0.038649748
0.038275812
0.038056793
0.038005088
0.038137832
0.038436617
0.038852304
0.039317713
0.039765829
0.040109577
0.040284317
0.040249132
0.040006493
0.039503807
0.03914043
0.038790852
0.038518725
0.038365609
0.038329754
0.038420102
0.038628506
0.038921009
0.039253057
0.039582719
0.039848463
0.039991445
0.039975806
0.039800786
0.039462168
0.039155447
0.038861636
0.038634469
0.038508144
0.038477889
0.038545157
0.038710927
0.038947647
0.039219432
0.039496341
0.039729821
0.039858307
0.039851734
0.039709785
0.050187195
0.0049093428
0.0014882631
0.021386635
0.011199127
-0.033969911
-0.089284111
-0.070060905
-0.014408573
0.05560652
0.13121608
0.080549654
0.13769288
0.1947581
0.09729533
0.050060775
0.024189254
0.014721903
0.014088327
0.0018547174
-0.023263879
-0.049295274
-0.049892742
-0.012976112
0.054460297
0.11492913
0.11650125
0.12439366
0.12283773
0.080170609
0.050395384
0.031275529
0.021604153
0.015247631
0.0038551462
-0.011496995
-0.025370407
-0.020455055
0.0088684032
0.051649498
0.088940473
0.097651892
0.10269464
0.097852541
0.073364074
0.049406032
0.03598563
0.026515441
0.018954844
0.010412677
0.001688491
-0.003618586
0.0017963495
0.020809943
0.047116911
0.070171097
0.080543339
0.083364529
0.078482108
0.06495632
0.04752166
0.038016815
0.030192157
0.023634332
0.01761734
0.012829797
0.011325356
0.016078344
0.028060613
0.044113338
0.058348481
0.066518304
0.068741948
0.065494133
0.0574944
0.045434509
0.038812061
0.032914036
0.027894371
0.023794939
0.021179105
0.021141097
0.024854774
0.032475343
0.042244717
0.051127402
0.056775676
0.058555568
0.056675895
0.051827873
0.043611305
0.039083819
0.034856134
0.031242585
0.0284972
0.027059714
0.027479162
0.030202235
0.035092966
0.041121581
0.046685838
0.050427774
0.051776525
0.050744777
0.047759304
0.042210849
0.039159386
0.036219159
0.033701241
0.031883254
0.031079011
0.031565309
0.033483827
0.036641945
0.040417488
0.043920766
0.046372974
0.047346201
0.046781182
0.044916679
0.041208255
0.039166222
0.037150574
0.035431207
0.034240399
0.033784685
0.034204952
0.035523548
0.037571993
0.039965172
0.042184904
0.043790872
0.044471661
0.044162123
0.0429917
0.040523701
0.039141208
0.037771345
0.036618408
0.035844494
0.035589601
0.035916776
0.036812897
0.038147988
0.039683708
0.041083846
0.042139037
0.042615828
0.042456112
0.041722638
0.040097663
0.039142699
0.038205621
0.037432746
0.036934326
0.036779016
0.037022776
0.037625448
0.038492858
0.039468161
0.040424825
0.041106422
0.041429129
0.041337805
0.040850142
0.039792299
0.039136381
0.038498112
0.037982632
0.037665194
0.037577103
0.03775039
0.038154272
0.038721607
0.039354798
0.039980758
0.04044398
0.040678067
0.0406336
0.040311005
0.039613835
0.039148385
0.038700986
0.038348838
0.038144787
0.038092915
0.03821109
0.038479497
0.038852718
0.039272034
0.039698081
0.040030945
0.040211898
0.040197805
0.039981911
0.03952613
0.039171362
0.03883415
0.038575556
0.038435123
0.038399948
0.038476548
0.038658533
0.038915314
0.039209085
0.039522665
0.039789367
0.039945098
0.039951992
0.039802285
0.039493047
0.039188846
0.038901421
0.038684513
0.038570725
0.038541125
0.038592441
0.038732903
0.038936994
0.039174435
0.039436667
0.039679575
0.039825246
0.039841413
0.039723279
0.059272089
0.033154439
-0.016355475
0.014651668
0.042073383
0.0025634941
-0.013376459
-0.020655774
0.0022299792
0.033414979
0.071613795
0.071654696
0.096798756
0.12304477
0.080613172
0.056444015
0.03630574
0.01775786
0.017080173
0.015071097
0.00077704261
-0.010200654
-0.010649911
0.0084349688
0.039625874
0.071531546
0.080140234
0.090426317
0.094022043
0.073356326
0.052743227
0.037163884
0.026390159
0.020667405
0.013624779
0.0049789095
-0.0010134533
0.002683622
0.018548698
0.041636746
0.063500615
0.073118907
0.080319347
0.080484533
0.06772901
0.049736198
0.038674198
0.030189358
0.023777628
0.017552021
0.01210577
0.0097099985
0.013928695
0.025811644
0.041689776
0.056513819
0.065366254
0.069826732
0.068654667
0.060688353
0.047201652
0.039370233
0.03264244
0.027099465
0.022403324
0.019097791
0.018518562
0.022219574
0.030474395
0.04123342
0.051226153
0.057964386
0.060928016
0.059761328
0.054584529
0.044994187
0.039491101
0.034428566
0.030134074
0.026789538
0.024844095
0.024996894
0.027951774
0.033594749
0.040719887
0.047404382
0.052128562
0.054170293
0.053357225
0.049980818
0.043267075
0.039437987
0.035775784
0.032638638
0.030313169
0.029152922
0.029551364
0.031762036
0.035595773
0.040293747
0.044727325
0.047919654
0.049332241
0.048822269
0.046616258
0.041982919
0.039351328
0.036767239
0.034544248
0.032956713
0.032264547
0.032684032
0.034277934
0.03686416
0.039952712
0.042879613
0.045015878
0.045989639
0.045680148
0.044229236
0.041079662
0.039276505
0.037476877
0.035934022
0.03486833
0.034453679
0.034811609
0.035932185
0.037665018
0.03969021
0.041627216
0.043051676
0.043717751
0.043533803
0.042579907
0.04046966
0.039219161
0.037973258
0.036921473
0.036215584
0.035964753
0.036244463
0.037020392
0.038176076
0.039502199
0.040796249
0.04174068
0.0421968
0.042094096
0.041464499
0.040023605
0.039171118
0.038318902
0.037608203
0.037143079
0.037004239
0.037212228
0.037747903
0.038523431
0.039408299
0.040215617
0.040863743
0.041191724
0.041148647
0.040748082
0.039758764
0.039162018
0.038571619
0.038090097
0.037788828
0.037705673
0.037855979
0.038218956
0.038732128
0.039316088
0.039861576
0.040304512
0.040540131
0.04052228
0.040252666
0.039604637
0.039173081
0.038751749
0.038417241
0.038220726
0.038169918
0.038274078
0.038516853
0.038855564
0.039242803
0.039625004
0.039946153
0.040129718
0.04013396
0.039953072
0.039530649
0.039195832
0.038872734
0.03862335
0.038487025
0.038451001
0.03851877
0.038683092
0.038915027
0.039183599
0.039473143
0.039732626
0.039892346
0.039915403
0.039793083
0.039503065
0.039211943
0.038933783
0.038723329
0.03861386
0.038582139
0.038626656
0.038752561
0.038935682
0.039149381
0.039397954
0.039635833
0.039786469
0.039818011
0.039724319
0.078467983
0.042613205
0.020160516
0.043436223
0.021409246
0.017890234
-0.0061104525
-0.003443205
0.031084686
0.034614206
0.034982607
0.038481644
0.061087723
0.092538083
0.073693017
0.064743002
0.044527832
0.028096977
0.02599554
0.018512724
0.01395969
0.0073005962
0.0082320989
0.020217199
0.031750816
0.043664881
0.052623064
0.067434305
0.080568722
0.07456265
0.055407673
0.039762424
0.031076027
0.027443913
0.020392789
0.015800241
0.013010267
0.015178884
0.023707458
0.035115827
0.047016074
0.05641042
0.065219708
0.069877936
0.065539692
0.050200424
0.040233207
0.033088997
0.028063885
0.023052408
0.01965002
0.018603553
0.021329729
0.028325
0.037733782
0.047332625
0.055010298
0.06027343
0.061614772
0.057834224
0.046885101
0.040290169
0.03454345
0.029936449
0.026223627
0.023931411
0.023774002
0.026405326
0.031863876
0.039033279
0.046157056
0.051832438
0.055117293
0.055347341
0.052310324
0.04456847
0.039980681
0.03564522
0.032001477
0.029259701
0.027810584
0.028027816
0.030247478
0.034332825
0.039513491
0.044611929
0.048603482
0.050737126
0.050652216
0.048402026
0.042927407
0.039690552
0.036526572
0.03381747
0.031852246
0.030924235
0.031272296
0.033014887
0.035979255
0.039622565
0.043177045
0.045923705
0.047340082
0.047205112
0.045610311
0.041756609
0.039486585
0.03722081
0.035270539
0.033892094
0.033305488
0.033652343
0.034959684
0.037059946
0.039574559
0.042013251
0.043887888
0.044842119
0.044730825
0.043625368
0.040933527
0.039347466
0.037747761
0.036373738
0.035425472
0.035055745
0.035354559
0.036303116
0.037765106
0.039482671
0.04114212
0.042415577
0.043063634
0.042986077
0.042225263
0.040367282
0.039260356
0.038139122
0.037185444
0.036543263
0.036311054
0.036550808
0.037224893
0.038230754
0.039391998
0.04052272
0.041382635
0.041826196
0.041777374
0.041251259
0.039977355
0.039207046
0.038426443
0.037769324
0.037336317
0.037200108
0.037378779
0.037851371
0.038538893
0.039329675
0.040075262
0.040666171
0.040978627
0.040955902
0.040606992
0.039736297
0.039192049
0.038643496
0.038188844
0.037899663
0.037813288
0.03794591
0.038271535
0.038734885
0.03926471
0.039776593
0.040189594
0.040416936
0.040412332
0.040175778
0.039599773
0.039199944
0.038800718
0.038477348
0.038281571
0.038226047
0.03831911
0.038540534
0.038851954
0.03920808
0.039570194
0.039876968
0.04005653
0.040070317
0.039913839
0.039533005
0.039217172
0.038905936
0.038660336
0.038519189
0.038478756
0.038541067
0.03869569
0.038914278
0.03916717
0.039441449
0.039690024
0.039845574
0.0398753
0.039771284
0.039504827
0.039227416
0.038957914
0.038748999
0.038631696
0.038596368
0.038641168
0.038763741
0.038940169
0.039148771
0.039383588
0.039606468
0.039751146
0.039787797
0.039707459
0.12213188
0.063676162
0.0090006268
0.010074407
0.019370856
0.032129426
0.041349788
0.027051814
0.014757993
-0.0073455764
-0.01442989
-0.041642845
-0.0012477263
0.13621616
0.17334176
0.077253091
0.050257517
0.027621072
0.023375856
0.02124057
0.023611255
0.025020063
0.020625117
0.019375262
0.015952995
0.019293382
0.029695794
0.053310068
0.084984592
0.092232098
0.059777364
0.044510375
0.032211733
0.027674214
0.023980363
0.022518741
0.022487654
0.022187752
0.024610914
0.028644134
0.035835175
0.04613445
0.057629532
0.065649006
0.067034512
0.05094963
0.042146507
0.034498628
0.029739862
0.026151318
0.024316955
0.024177681
0.025530995
0.029316512
0.034822222
0.041703584
0.049047857
0.055058972
0.057607461
0.056448647
0.046653804
0.040973971
0.035649693
0.031534413
0.028564883
0.027029724
0.027129564
0.028990588
0.032618958
0.037598165
0.043112769
0.048202618
0.051660999
0.052565993
0.050817109
0.044203098
0.04025876
0.036398005
0.033181265
0.0308799
0.029790567
0.030067709
0.0317649
0.034816511
0.03876621
0.042897789
0.046418665
0.048558396
0.048845763
0.047278084
0.042631986
0.039814156
0.037007299
0.034606512
0.032906342
0.032148903
0.032469485
0.033889575
0.036266723
0.039214515
0.042197821
0.044633275
0.046013572
0.046081826
0.044866137
0.04154923
0.03954358
0.037517574
0.035770345
0.034549993
0.03404508
0.034349024
0.035457687
0.037223276
0.039349788
0.041454581
0.043135403
0.044054174
0.04405164
0.043154094
0.040794812
0.039375185
0.037927458
0.036681159
0.035825141
0.035492794
0.035757085
0.036585952
0.03785803
0.039358481
0.040825324
0.041981609
0.042602023
0.04258088
0.041936676
0.040279195
0.039274922
0.038248327
0.037372089
0.036783619
0.036564876
0.036780918
0.037383765
0.038281689
0.039323648
0.040339684
0.041131537
0.041555091
0.041537761
0.041085871
0.039939986
0.039222057
0.038494555
0.0378801
0.037474016
0.037350496
0.037509467
0.037938308
0.038563294
0.039282055
0.039973387
0.040522225
0.040819765
0.040811661
0.040501234
0.039718596
0.039205982
0.038686886
0.038255131
0.037979612
0.037896582
0.03801701
0.038316849
0.038743994
0.039231264
0.039712901
0.04010424
0.040325391
0.040332782
0.040121652
0.039594639
0.039212123
0.038828124
0.03851614
0.038326633
0.038270523
0.038356471
0.038563309
0.038853891
0.039185469
0.039530306
0.039825965
0.040003452
0.040026724
0.039887669
0.039532015
0.039226239
0.038923382
0.038683539
0.038544386
0.038502289
0.038562072
0.038709125
0.038916019
0.039156359
0.039420044
0.039659472
0.039813727
0.039849937
0.039756776
0.039503519
0.039234104
0.038970918
0.038765597
0.038648288
0.038611238
0.038656072
0.03877376
0.038942765
0.039145127
0.039372513
0.039585495
0.039728672
0.03976943
0.039695603
0.13467893
0.025396657
-0.033912504
0.020062372
0.017698149
0.052273421
0.076644391
0.035459846
0.031552545
-0.065179446
-0.10383919
0.0729721
0.15998678
0.049904192
0.10007982
0.073930406
0.042121935
0.020759016
0.02524151
0.024159272
0.031140376
0.033917031
0.023884994
0.020614971
0.0037302492
0.0044435044
0.048538909
0.078585168
0.071063257
0.077038398
0.057083939
0.043295018
0.032085831
0.028301059
0.025101834
0.025763019
0.026849793
0.024699526
0.025324939
0.025760958
0.032300625
0.048168158
0.060412749
0.062187262
0.062439589
0.049745847
0.042027335
0.034917788
0.030418685
0.027141499
0.02638402
0.026887496
0.02740745
0.029946888
0.033955458
0.04021985
0.048221318
0.054158831
0.055634278
0.054417577
0.046011738
0.040939421
0.035988814
0.032127142
0.02946893
0.028433
0.028768565
0.030257246
0.033113455
0.037239858
0.042238172
0.047165961
0.050486551
0.051239886
0.049676785
0.043804507
0.040225995
0.036645702
0.033647725
0.031563686
0.030718355
0.031085758
0.032551861
0.035148794
0.038585696
0.04233623
0.045630363
0.04766732
0.047967501
0.04657246
0.042366653
0.039781246
0.03716941
0.034936698
0.033384542
0.03274834
0.033084227
0.034362736
0.036477758
0.039123382
0.041852793
0.044124008
0.045433765
0.045522181
0.044414978
0.041373484
0.039513352
0.037619001
0.035987683
0.034861906
0.034416627
0.034716782
0.035738489
0.03735321
0.039306153
0.04125158
0.042825646
0.043696403
0.043702228
0.042864716
0.040683301
0.039352542
0.037990096
0.036819375
0.036022571
0.035720785
0.035976292
0.036751396
0.03793604
0.039335246
0.040705883
0.041796114
0.042384762
0.042367422
0.041762044
0.040209789
0.039258958
0.038285823
0.037457601
0.036907516
0.036698129
0.036909164
0.037480942
0.038326982
0.039308249
0.04026546
0.041016243
0.041422126
0.04141406
0.040995318
0.039918202
0.039218153
0.038515528
0.037925911
0.037539303
0.037435221
0.037588061
0.037997382
0.038590375
0.039268778
0.039929429
0.040451477
0.040738713
0.040735784
0.040437883
0.039707038
0.039203008
0.038697336
0.038280522
0.038017061
0.037944152
0.038060642
0.038349047
0.038757117
0.039220829
0.039684407
0.04006351
0.04028202
0.040295133
0.040091474
0.039588898
0.039209733
0.038832875
0.038530367
0.038349157
0.038297146
0.038380566
0.038579838
0.038858892
0.039177971
0.039513747
0.039803597
0.039981947
0.040009882
0.039874476
0.0395295
0.039225215
0.038926579
0.038692684
0.038558589
0.038517302
0.038575542
0.038716978
0.038916569
0.039150141
0.039410005
0.039647011
0.039803643
0.039842847
0.039751054
0.039503029
0.039234926
0.038974718
0.0387732
0.038659282
0.038621406
0.038664519
0.038777187
0.038940521
0.03913719
0.0393632
0.039576328
0.039722311
0.039765327
0.039692614
0.079786549
0.044780326
0.015978077
0.023426082
-0.022185851
0.037234529
0.071343359
0.015060453
0.016647901
-0.00034201781
-0.022764314
0.068630939
0.12091184
0.05917057
0.065614933
0.059357856
0.042394583
0.028681919
0.027859552
0.018834804
0.027193332
0.029666634
0.016862127
0.019247688
0.01998322
0.026066209
0.056912984
0.076121148
0.065476364
0.062450931
0.05175479
0.042213414
0.033158111
0.028315026
0.021421187
0.024552352
0.027632959
0.023069619
0.025728452
0.030684946
0.03935673
0.053146087
0.061662216
0.060340124
0.05691777
0.047716858
0.041176585
0.03481433
0.030050428
0.025905488
0.025874536
0.026989349
0.027135943
0.030412419
0.035793053
0.042902552
0.050563887
0.055182265
0.055269009
0.052552894
0.0451924
0.040424121
0.035698928
0.031863479
0.029066818
0.028230766
0.028782368
0.030290421
0.03345001
0.038058402
0.043361669
0.048216101
0.051049658
0.051168877
0.049027749
0.043450938
0.039936995
0.036436194
0.033452025
0.031395908
0.030632625
0.031098851
0.032624025
0.035363099
0.038978187
0.042867724
0.046123338
0.047943719
0.047960165
0.046311554
0.042176656
0.039607378
0.037024375
0.034815688
0.033291505
0.032710634
0.033100809
0.034429738
0.036621105
0.039350532
0.042119901
0.044367969
0.045580909
0.045530392
0.044286018
0.041263254
0.039406846
0.037526048
0.0359167
0.03481473
0.034407898
0.034735142
0.035787556
0.037443336
0.039440668
0.041389377
0.042955008
0.043775238
0.043703933
0.042793177
0.04061859
0.03928731
0.037934819
0.036780537
0.036000896
0.035724032
0.03599167
0.036782519
0.037986684
0.039413552
0.040772671
0.041860062
0.042423273
0.042368607
0.041729261
0.040162274
0.03920881
0.038244114
0.037432237
0.036898205
0.036695103
0.036919583
0.037505219
0.038361384
0.039352705
0.040298076
0.041044754
0.041442573
0.041422558
0.040992704
0.03991502
0.03919899
0.038487898
0.037900576
0.037522231
0.037441231
0.037605379
0.038021665
0.038615454
0.039288531
0.039953423
0.04046871
0.040749134
0.04073497
0.04041546
0.039706104
0.03918721
0.038675199
0.03826118
0.038003893
0.037951216
0.038074297
0.038365632
0.038773319
0.039235118
0.03969926
0.040076017
0.040294059
0.04030134
0.040080067
0.039589204
0.039198115
0.038817386
0.038518679
0.038343002
0.038303222
0.038388516
0.038587349
0.038865368
0.03918352
0.039521909
0.039814297
0.039995787
0.040021144
0.039873445
0.039533678
0.039219616
0.038918061
0.038686876
0.038557218
0.038521094
0.038578125
0.038717248
0.038914278
0.039143958
0.039409223
0.039654258
0.039816161
0.039855236
0.0397572
0.039511511
0.039233844
0.038970751
0.038770712
0.038659818
0.038623193
0.038663493
0.038773125
0.038932545
0.039123165
0.039355618
0.039580526
0.039732439
0.03977698
0.039702698
0.048924171
0.036300082
0.03108025
0.039692646
0.025901017
0.036312491
0.00016949656
-0.044821707
-0.0083597175
0.065461736
0.078468171
0.082124675
0.073967539
0.057447413
0.026243799
0.047788867
0.040321491
0.032739251
0.031224306
0.024173685
0.020460303
0.0091983963
0.00025764142
0.016212929
0.039813648
0.056904151
0.069491229
0.072729895
0.061945655
0.048043395
0.047272945
0.040131162
0.033129501
0.028461083
0.023011183
0.019969934
0.017535599
0.016821058
0.025292919
0.037677338
0.051215983
0.062558852
0.064707281
0.060753155
0.052941286
0.046051196
0.039813804
0.033866364
0.029176894
0.025136153
0.023158391
0.022684022
0.024465278
0.030358998
0.038824931
0.048235891
0.055747126
0.058422189
0.056685457
0.051754047
0.044592301
0.039590649
0.0347916
0.030882159
0.027947152
0.026556567
0.026821216
0.028921248
0.033451996
0.039561266
0.046043881
0.05106916
0.053272163
0.052441441
0.049169591
0.043234302
0.039436135
0.0357521
0.03266971
0.030518203
0.029573221
0.030007061
0.031939944
0.035409462
0.039824046
0.04428972
0.047742197
0.049364102
0.04889595
0.046647038
0.042121352
0.03932649
0.036589403
0.03428447
0.032703765
0.032063977
0.032509949
0.03408057
0.036658976
0.039804936
0.042922795
0.045295477
0.046429932
0.046128895
0.044552841
0.041257641
0.039244465
0.037255755
0.035577772
0.034444526
0.034013734
0.034405149
0.035601417
0.037470443
0.039678446
0.041859206
0.043488423
0.044271444
0.044068923
0.042972844
0.040638242
0.039195797
0.037768175
0.036566392
0.035769318
0.035491031
0.035802516
0.03668148
0.038005542
0.039542064
0.041049536
0.042169249
0.04271026
0.042578648
0.041824848
0.040213204
0.039173528
0.038146019
0.037290164
0.036732464
0.036582669
0.036823355
0.037457421
0.038381298
0.039433851
0.040458973
0.041224415
0.04160492
0.041526503
0.041004399
0.039858292
0.039142752
0.038425713
0.037835851
0.037464592
0.037332075
0.037528358
0.03798412
0.038625432
0.039352913
0.040039274
0.040575521
0.040856648
0.040831461
0.040503421
0.03967753
0.039153222
0.038632573
0.038214095
0.037965272
0.03788436
0.038028198
0.038345018
0.03878314
0.039277757
0.039758453
0.040141813
0.040353446
0.040347963
0.0401229
0.039573331
0.039176275
0.038787641
0.038483096
0.038311046
0.038261298
0.038358329
0.038575096
0.038875138
0.039216125
0.039561016
0.039856637
0.040031635