/*--------------------------------*- C++ -*----------------------------------*\
| =========                 |                                                 |
| \\      /  F ield         | OpenFOAM: The Open Source CFD Toolbox           |
|  \\    /   O peration     | Version:  3.0.1                                 |
|   \\  /    A nd           | Web:      www.OpenFOAM.org                      |
|    \\/     M anipulation  |                                                 |
\*---------------------------------------------------------------------------*/
FoamFile
{
    version     2.0;
    format      ascii;
    class       surfaceScalarField;
    location    "0.2";
    object      phi;
}
// * * * * * * * * * * * * * * * * * * * * * * * * * * * * * * * * * * * * * //

dimensions      [0 3 -1 0 0 0 0];

internalField   nonuniform List<scalar> 
9450
(
0.47654395
-0.02489645
-0.0055163329
0.84131866
-0.16417055
-0.088209576
2.8784619
-0.73160774
-0.73495072
2.9501403
-0.019139105
0.0048848423
1.0749412
0.67869898
0.68853891
0.98476452
0.023532352
0.10961817
1.169943
-0.24213292
0.37836483
0.41945314
-0.51574652
1.8727477
-1.1927971
-0.5875206
2.8843002
-0.47048096
0.22089334
-1.2756797
1.2213975
0.61106105
-3.1977862
1.5582173
0.071243846
-0.69060344
1.1757276
0.21040666
-0.010856656
0.48477022
0.39936323
0.10562167
0.082580439
-0.049753558
0.16422751
-0.0063308892
-0.0062767204
0.15337675
-0.081526573
-0.031878324
-0.1739671
-0.17603877
-0.12849193
-0.14246027
-0.02060477
-0.0074016994
0.23695487
0.12159064
0.12711674
0.26314395
-0.025425861
0.080420255
0.2092288
-0.18090436
0.15959205
-0.12006056
-0.32175773
0.4168086
-0.6577429
-0.29003655
0.49030866
-0.43520637
0.092988206
-0.22328702
0.092719535
0.319799
-0.59395345
0.031288145
0.16165604
-0.22632078
0.018454412
0.15756524
-0.037924424
0.15636759
0.18665746
0.015112215
0.067307613
-0.015829131
0.08842147
0.0072917587
-0.0055157581
0.059448865
-0.030001638
-0.011613976
-0.018653636
-0.053799406
-0.025967509
-0.0056524709
-0.020565233
0.0011161379
0.090118961
0.0068833884
0.031687989
0.11297065
-0.041153574
0.03301983
0.063427157
-0.10940077
0.056554053
-0.09128301
-0.15954224
0.10011424
-0.27247142
-0.12363348
0.092414074
-0.20877634
0.028998252
-0.045102191
-0.023653942
0.1335932
-0.12362395
0.0031949377
0.11358815
-0.068866925
0.02362613
0.10389146
-0.018505291
0.083388561
0.097005204
-0.00091865113
0.050106601
-0.007824385
0.051165153
0.01150721
-0.0031962267
0.036973025
-0.0087161077
-0.0043851596
0.01453926
-0.020125824
-0.0059281213
0.017026547
-0.016421898
0.0016892819
0.042058196
-0.015441986
0.010736847
0.045037701
-0.035618852
0.014089573
0.013166248
-0.0631598
0.020345362
-0.055460608
-0.077705464
0.026890635
-0.11972036
-0.054613371
0.019286633
-0.10380203
0.007535036
-0.011113751
-0.040649367
0.055862885
-0.029573776
-0.010242085
0.064753396
-0.020581931
0.012857065
0.063606811
-0.0082073109
0.041836696
0.05638982
-0.0034100642
0.035321328
-0.0040088034
0.031067214
0.01075533
-0.0016690276
0.025729512
-0.00096164904
-0.0017107431
0.018192213
-0.008842958
-0.0013729162
0.017482131
-0.012077356
0.0012750986
0.021788491
-0.016209056
0.0044377236
0.017579068
-0.025780163
0.0062481564
-0.0013068893
-0.036609227
0.0077839583
-0.032356805
-0.039605407
0.0080848681
-0.057498178
-0.026316986
0.0044628045
-0.053913643
0.0010877693
-0.0034580098
-0.031450975
0.024891637
-0.0083198367
-0.012236324
0.035409362
-0.0068555767
0.0047624983
0.037922187
-0.0036519447
0.021161865
0.03435126
-0.0021272871
0.02410521
-0.0018893215
0.019447098
0.0086210342
-0.00078994682
0.017888722
0.0013897345
-0.0006223812
0.01494684
-0.0043375773
-0.00024875445
0.013292863
-0.0083971868
0.0008104237
0.012099818
-0.012405475
0.0020917949
0.0068737065
-0.01742774
0.0027627638
-0.0042739443
-0.021627289
0.0031427679
-0.019051884
-0.021257326
0.0027480117
-0.030027045
-0.013720345
0.0011667332
-0.029920914
-0.00057625728
-0.0013035933
-0.020883558
0.011999703
-0.0027525195
-0.0099770087
0.019592897
-0.0025782988
0.00093877894
0.02244691
-0.0017029026
0.010979559
0.021125584
-0.0011248587
0.015946173
-0.00092374681
0.012274216
0.0063152414
-0.00035571323
0.012176134
0.0018018361
-0.00020788087
0.010884513
-0.0022449371
3.5054667e-05
0.0092775716
-0.0055976972
0.00048047857
0.0069958064
-0.0086182581
0.0009845385
0.0027616464
-0.011401682
0.0012936961
-0.0038941936
-0.013040207
0.001332745
-0.011497527
-0.012078433
0.0010265758
-0.016840776
-0.0076806974
0.0003457859
-0.017317666
-0.00076893095
-0.00053015199
-0.01329374
0.0061761676
-0.001047074
-0.0072148436
0.011096215
-0.0010642547
-0.00046989493
0.013407611
-0.00078903095
0.0058104656
0.013091574
-0.00055254091
0.010429614
-0.00043203224
0.0077894537
0.0043741845
-0.00017799516
0.0081386819
0.0015469404
-6.9523704e-05
0.0075315013
-0.0012002417
6.3134532e-05
0.006254377
-0.0036456093
0.00026762281
0.0042084999
-0.0057522756
0.00047397338
0.0011304345
-0.0073576198
0.00060630746
-0.0029268024
-0.0080213978
0.00058711416
-0.0070880502
-0.0071462299
0.00042340932
-0.0099083019
-0.0045063446
0.00012340105
-0.01036743
-0.00063325282
-0.00022228091
-0.0083818753
0.0033504476
-0.00041778819
-0.0049400598
0.006429647
-0.00046053299
-0.00082013201
0.0080958632
-0.00036894847
0.0031469813
0.0081731441
-0.00026558614
0.0067766644
-0.00020809511
0.0049706829
0.0029228701
-9.3681402e-05
0.005396782
0.0011630434
-3.0795817e-05
0.005086979
-0.00064328949
5.082974e-05
0.0041469325
-0.0023322143
0.00014616975
0.0026041011
-0.0037658836
0.00023130855
0.00046808015
-0.0047657291
0.00028025783
-0.0020477805
-0.0050252673
0.00026517291
-0.0044416202
-0.0043559265
0.00018364774
-0.006035136
-0.0027463393
4.7359422e-05
-0.0063825471
-0.00051069493
-0.0001085537
-0.0053090968
0.0019006824
-0.00017463355
-0.0032899475
0.0038234725
-0.00020204146
-0.00075689049
0.0049656086
-0.00016852563
0.0017479606
0.0051356892
-0.00012613459
0.0043698745
-0.00010239998
0.0032221854
0.0019034553
-2.5207028e-05
0.0035933876
0.00078184039
1.3539243e-05
0.0033992466
-0.00042299819
4.1823714e-05
0.002713544
-0.0015515992
7.8296435e-05
0.0016050271
-0.0024799955
0.00012229736
0.00020951855
-0.0030141187
0.00015767742
-0.0013761846
-0.0031341457
0.00012598696
-0.002828773
-0.0026669365
7.487112e-05
-0.003774184
-0.001660971
1.1737552e-05
-0.0039708869
-0.00030840711
-6.0834324e-05
-0.0033904853
0.001102657
-9.7562864e-05
-0.0021561893
0.00231859
-0.00010066307
-0.00059191977
0.0030440601
-9.7856789e-05
0.0009802134
0.0031844219
-8.3326331e-05
0.0027831759
-3.9519201e-05
0.0021113012
0.0012269801
1.5713425e-05
0.0023898622
0.00054914025
4.6471814e-05
0.0022714112
-0.00022086289
5.7624624e-05
0.0017856841
-0.00096355925
6.6903633e-05
0.0010720479
-0.0015629925
8.6478281e-05
9.0918834e-05
-0.0019298886
6.8703213e-05
-0.00090746131
-0.0019977266
4.3160012e-05
-0.001820985
-0.0017104723
6.4580121e-06
-0.0024206062
-0.0010729176
-1.9599429e-05
-0.0025605762
-0.00019204471
-4.4443019e-05
-0.0021769052
0.00069032448
-5.12261e-05
-0.0014345819
0.0014274771
-5.0867992e-05
-0.00045516078
0.0018769194
-5.1331534e-05
0.00057772169
0.0019737043
-3.9006881e-05
0.0017268968
-1.8652578e-06
0.0014345007
0.00075986312
2.5404243e-05
0.0016210837
0.00033270638
2.8797975e-05
0.0015295231
-0.00015488071
2.5691094e-05
0.001186756
-0.0006195942
2.7403795e-05
0.00070569779
-0.00098153171
3.880012e-05
2.388531e-05
-0.0012041746
2.3728714e-05
-0.00061925435
-0.0012174153
2.3465289e-05
-0.0011823454
-0.0010249008
1.2892083e-05
-0.0015391822
-0.00063606693
-1.8522629e-06
-0.0016782294
-0.00012266377
-2.4040992e-05
-0.0014413726
0.0004159551
-1.7663311e-05
-0.00098764621
0.00084724688
-2.8489043e-05
-0.000360325
0.0011243158
-2.6350022e-05
0.00032974535
0.0012036443
-9.3424744e-06
0.0010760263
1.6980582e-05
0.0010075354
0.00044796978
3.1255464e-05
0.0011339902
0.00017783344
2.0275734e-05
0.0010653052
-0.00011915337
9.9852088e-06
0.00082512876
-0.00038585316
7.6355792e-06
0.00048374218
-0.00057638895
9.1507163e-06
1.1179869e-05
-0.00070497448
1.9494601e-06
-0.00042605021
-0.00068536869
6.8967649e-06
-0.00079303016
-0.0005626394
8.4224354e-06
-0.0010257315
-0.0003497144
9.4784095e-07
-0.001140008
-8.7376814e-05
-1.7024395e-05
-0.0010108165
0.00022347258
-1.4401341e-05
-0.0007117936
0.00047472969
-1.35649e-05
-0.00028196608
0.00064435476
-7.3292371e-06
0.00020146977
0.00070218191
5.6706973e-06
0.00063984464
2.3995838e-05
0.00073745261
0.00020721946
2.9992997e-05
0.0008370747
6.9956035e-05
2.237459e-05
0.00079880195
-6.8212598e-05
1.6960787e-05
0.00063453455
-0.00018377223
9.6385662e-06
0.00035562
-0.00025889898
-5.445643e-06
3.0913193e-05
-0.00032193559
-5.8496489e-06
-0.00030304735
-0.00030749183
-9.9676706e-06
-0.00058001082
-0.00024966071
-8.3648946e-06
-0.0007633818
-0.00015824786
-8.5554104e-06
-0.00082939739
-4.9513522e-05
-1.2011061e-05
-0.00075989335
9.5944239e-05
-1.5941524e-05
-0.00054253623
0.00021848283
-9.3620225e-06
-0.00022435113
0.0002993295
-4.5573062e-06
0.00013855635
0.00032735685
4.0435447e-06
0.00030136513
1.749373e-05
0.00060044688
2.6244715e-05
0.00069864983
3.0769069e-05
0.00068301643
2.8766501e-05
0.00055891914
1.3634442e-05
0.00029252123
-1.538296e-05
4.5239722e-05
-1.2187722e-05
-0.00024518417
-2.1309409e-05
-0.00048851135
-1.9687398e-05
-0.00065413816
-1.3677703e-05
-0.0006837355
-6.6565702e-06
-0.0006372121
-1.4208085e-05
-0.00046142332
-1.2976504e-05
-0.00019619801
-9.4416672e-06
0.00011232261
-1.9212725e-07
1.3144021e-05
0.70060593
-0.051757119
-0.043675534
0.51941907
-0.1093803
0.20237553
0.10052762
-0.12824661
-0.18788429
0.52663444
-0.045117793
-0.3760108
0.97656265
0.12697164
0.11165662
0.98751571
0.03328641
0.065367436
2.1959104
-0.44497646
-0.38490189
7.8612431
-1.9726534
-1.8200412
16.541703
-2.990589
-2.805724
12.779146
1.2688486
1.2180703
3.243344
3.2192795
3.1194534
0.98558498
0.66006996
0.90699223
0.38206212
0.20097796
0.39160203
0.41345604
0.17805964
-0.10380335
0.045645699
-0.29251733
0.13737868
-0.0086159287
-0.02376367
0.057846036
-0.060634136
-0.0010793062
-0.05602983
-0.068737185
-0.074047173
-0.01063284
-0.027587739
-0.070301814
0.18453243
0.02784262
0.031204378
0.34698392
-0.048368234
-0.00052870893
0.47263919
-0.27412614
-0.13676625
-0.042393062
-0.6372783
-0.40342817
-1.3678542
-0.69338426
-0.48158544
-0.80355925
0.27072768
0.21094042
0.44591454
0.79097121
0.58491337
0.23318828
0.35113137
0.29529466
0.087618525
0.17566608
0.13305468
0.14022555
0.13993993
0.000646816
0.064295784
-0.057271874
0.082359446
0.0095370079
-0.010875262
0.045316767
-0.022698849
-0.012573176
0.0083678864
-0.03255182
-0.025266963
0.023994506
-0.02243195
-0.019688822
0.091927282
-0.013986381
0.0054847798
0.13740995
-0.055867836
-0.0047901789
0.1084563
-0.14332413
-0.04562945
-0.098887916
-0.23280331
-0.096998124
-0.4098188
-0.19711952
-0.093052957
-0.28692871
0.062990825
0.039816279
0.028576062
0.22794597
0.12351077
0.053338458
0.16346655
0.094173461
0.042461615
0.11354935
0.054517412
0.079634375
0.092247889
0.0096378729
0.052864956
-0.01182304
0.05004233
0.012999633
-0.0035780407
0.03549079
-0.0060150463
-0.0066743035
0.022160044
-0.015466625
-0.0096166551
0.025770895
-0.017195694
-0.0069775433
0.045405646
-0.021764479
-0.0010169666
0.051249471
-0.043010044
-0.0047660705
0.019876765
-0.075414701
-0.016131175
-0.06304706
-0.096525534
-0.026549269
-0.15004173
-0.069472594
-0.021416947
-0.12191327
0.015200431
0.0086843074
-0.031751792
0.07715875
0.031023181
0.0019944973
0.078509269
0.030662102
0.017777651
0.067904059
0.021631038
0.041266063
0.057496551
0.0078467422
0.037487941
-0.00042170963
0.03113629
0.011770546
-0.0010709127
0.02609022
0.00011882113
-0.0028195124
0.020846152
-0.007705354
-0.0038670131
0.020614396
-0.012560952
-0.0031071655
0.023602761
-0.018565967
-0.0018076266
0.019117023
-0.029184253
-0.0031221131
-0.00099473513
-0.041246656
-0.0063183265
-0.035967639
-0.044947086
-0.0084738789
-0.065391255
-0.029617158
-0.0059945343
-0.059055671
0.0032508162
0.0022020354
-0.029993723
0.030466013
0.0093353905
-0.0090735888
0.039660805
0.011031734
0.0063068386
0.03979
0.0091392674
0.021405709
0.0353302
0.004975923
0.025094717
0.0013300789
0.019584985
0.0090656126
-6.1871921e-05
0.018294203
0.001843135
-0.0010722478
0.016008144
-0.0040492972
-0.0016619024
0.014573419
-0.0087280395
-0.0015919358
0.012769999
-0.013514003
-0.0013914035
0.0072538997
-0.018965342
-0.0019109949
-0.0046648312
-0.023439271
-0.0028134532
-0.020626631
-0.02298022
-0.0031513591
-0.032487038
-0.014540492
-0.0019865408
-0.031381748
0.00020211688
0.00068799873
-0.020714162
0.013708859
0.0033539883
-0.0091147309
0.021095918
0.004475014
0.0015200216
0.023335297
0.0041820071
0.011186048
0.021689715
0.0028441962
0.01644194
0.0012741694
0.0124193
0.0064950064
0.00018447752
0.0124191
0.0019423835
-0.00038127099
0.011330229
-0.0022159652
-0.00075614972
0.00978517
-0.0058105611
-0.00085730322
0.0073000766
-0.0091260111
-0.00090258237
0.0028005388
-0.012094452
-0.001116615
-0.00419821
-0.013786372
-0.0013636357
-0.012175629
-0.012681684
-0.0013421157
-0.017711529
-0.0079016809
-0.0007713997
-0.017835606
-0.00045837175
0.00029167826
-0.013313832
0.0068068335
0.0013797263
-0.0069434096
0.011697067
0.0020001153
-0.00023269115
0.013819745
0.0020390613
0.0059325773
0.013375086
0.0015771985
0.010654662
0.00087514343
0.0078927991
0.0044595934
0.00019010785
0.0082711316
0.0015864882
-0.00012242253
0.007736959
-0.0012121789
-0.00035199161
0.0064688763
-0.003767977
-0.00047680427
0.0043306213
-0.0060024313
-0.00056669513
0.0011114329
-0.0076841712
-0.0006617571
-0.0030897035
-0.0083435941
-0.0007090662
-0.0073870965
-0.0073857424
-0.00063331481
-0.010249654
-0.0045814137
-0.00033053184
-0.010563207
-0.00051796414
0.00015411224
-0.0084258187
0.0035945584
0.00064578139
-0.0048496436
0.0066874269
0.00096785547
-0.00071652743
0.0082935297
0.0010482094
0.0032054375
0.0083112349
0.00088049425
0.006882577
0.00055724706
0.0050253181
0.0029913363
0.00015751658
0.0054783907
0.0012076045
-1.9908022e-05
0.0051828777
-0.00065221254
-0.00016450211
0.0042344502
-0.0024009642
-0.00026805702
0.0026495877
-0.0038784562
-0.00033726546
0.00045303531
-0.0048883172
-0.00038816241
-0.0021290564
-0.0051644522
-0.0003891062
-0.0045775469
-0.0044643558
-0.00032046591
-0.0061809415
-0.002781227
-0.00015420173
-0.0064488537
-0.0004623449
7.6323808e-05
-0.0053368288
0.0019779658
0.00032813235
-0.0032569573
0.0039245408
0.00050046457
-0.00071446677
0.0050345022
0.00056384222
0.0017722973
0.0051779229
0.00049769463
0.0044321085
0.00035109939
0.0032681396
0.001944474
0.00011265004
0.0036216696
0.00081505943
5.9458093e-06
0.0034356335
-0.00040663809
-8.6700073e-05
0.0027574968
-0.0015621951
-0.0001510617
0.001640451
-0.0025113294
-0.00019136764
0.00017787847
-0.0031036626
-0.0002158005
-0.0014271518
-0.0032170042
-0.00021317046
-0.0028916537
-0.0027354298
-0.00016678521
-0.0038484958
-0.0016924339
-7.6668962e-05
-0.0040077528
-0.00029190356
4.6207729e-05
-0.0033934248
0.0011497462
0.00018577269
-0.0021537965
0.0023687899
0.00027481282
-0.00057750276
0.00309028
0.00030507439
0.0010241131
0.0032283118
0.00027595954
0.002820507
0.00020184946
0.0021422512
0.0012364915
7.1959689e-05
0.0024015506
0.00053166572
1.6698014e-05
0.0022811207
-0.00025277935
-3.9305966e-05
0.001808922
-0.0010033745
-8.2118645e-05
0.0010489321
-0.0016133849
-0.00010968948
6.5524376e-05
-0.0019748748
-0.00012558304
-0.00094422066
-0.0020173855
-0.00012330124
-0.0018469772
-0.0017038678
-9.5460325e-05
-0.0024453808
-0.0010549611
-4.0210879e-05
-0.0025666916
-0.00017164908
4.0903974e-05
-0.002176394
0.00072393452
9.7015367e-05
-0.0014354501
0.0014496481
0.00015167598
-0.00044289575
0.0019014303
0.00017159485
0.00061469054
0.0020031596
0.00016377375
0.0017457512
0.00012730012
0.0014381253
0.00076616044
5.1505462e-05
0.001618052
0.00032434122
1.3318378e-05
0.0015312853
-0.00017062504
-2.4205271e-05
0.0011994665
-0.00063960254
-5.4699634e-05
0.00068808479
-0.0010125989
-7.6334096e-05
2.3771253e-05
-0.0012255895
-8.9951802e-05
-0.00062994027
-0.0012339431
-7.9413956e-05
-0.0011973317
-0.001029275
-5.668313e-05
-0.0015615769
-0.00063302231
-2.221043e-05
-0.0016711477
-0.0001155454
1.906318e-05
-0.0014521014
0.00041925212
5.9753688e-05
-0.00098555458
0.00086162395
8.7900999e-05
-0.00034313572
0.0011431574
9.9892217e-05
0.00035634076
0.001218474
9.9482929e-05
0.0010828228
8.3474009e-05
0.00099654815
0.00044605311
4.0035894e-05
0.0011235456
0.00017951889
1.1566e-05
0.0010627846
-0.0001124263
-1.4559492e-05
0.00082687874
-0.00038409955
-4.0321966e-05
0.00047557476
-0.00059186265
-6.3491968e-05
1.6000016e-05
-0.00071149616
-7.4821378e-05
-0.00042473965
-0.00070218908
-6.2139981e-05
-0.00080068968
-0.00057923672
-4.273088e-05
-0.0010440407
-0.00035881102
-1.8436329e-05
-0.0011367377
-8.1612298e-05
5.376643e-06
-0.0010103189
0.00022197509
3.4872718e-05
-0.0007051039
0.0004791914
5.4089787e-05
-0.00026882234
0.00064694662
6.3053146e-05
0.00022011916
0.00070047067
6.530446e-05
0.00063280015
5.9316247e-05
0.00073004727
0.00020306355
3.0611607e-05
0.00083173297
7.7982621e-05
1.32156e-05
0.0007913239
-5.6635783e-05
-6.391998e-06
0.00061923631
-0.00017998938
-3.2056891e-05
0.00035624132
-0.0002692826
-5.9599291e-05
2.5580925e-05
-0.00032795443
-6.750244e-05
-0.00030154484
-0.00031871137
-5.8449514e-05
-0.00058012129
-0.0002607732
-4.0918372e-05
-0.00076678584
-0.00016320747
-1.8036241e-05
-0.00083329017
-4.2909461e-05
5.6285845e-06
-0.00075339947
9.8287511e-05
2.5591156e-05
-0.00053772945
0.00021483702
3.6856505e-05
-0.00021575746
0.00029376181
4.2420827e-05
0.00015214269
0.00032211548
4.4820536e-05
0.00029339302
4.0938861e-05
0.0006049248
2.5920322e-05
0.00069688369
1.3875086e-05
0.00066774257
-4.7244424e-06
0.00052960079
-3.1073879e-05
0.00029744149
-6.0780671e-05
3.4776914e-05
-6.3788047e-05
-0.00024356351
-5.6008645e-05
-0.00048240945
-3.9277642e-05
-0.00064618153
-1.5889627e-05
-0.00069184945
1.0807139e-05
-0.0006366594
2.3424326e-05
-0.00045863742
2.9793076e-05
-0.00018735285
3.4753904e-05
0.00012331349
3.6281495e-05
3.0934189e-05
0.72030701
-0.0097588308
-0.051190578
1.5636843
-0.31963106
-0.32146285
1.4654754
-0.034426574
-0.055235758
0.56257205
0.27839277
0.2484528
0.45953975
0.059950626
0.1548231
0.57759151
-0.047604722
-0.0052197728
0.70368893
-0.21864206
-0.29229503
0.09315896
-0.54973275
-0.6598092
-1.226919
-0.67710462
-0.80856955
-0.50136499
0.24138484
0.25115475
1.0886006
0.66726195
0.86233355
1.6298249
-0.062747193
0.42841873
2.0507404
-0.094495654
0.065186874
1.5193782
0.40809867
0.019510969
0.35235806
0.17145246
0.16895651
0.013151161
-0.013823691
-0.010766407
-0.072710445
-0.06832489
-0.055280419
-0.029458078
-0.034612635
0.087771215
0.03876155
0.026082201
0.15465506
0.0022301612
0.021875827
0.2141441
-0.066738201
-0.040807777
0.20366283
-0.18431343
-0.16064234
-0.11978361
-0.33067868
-0.29917384
-0.68035841
-0.30821695
-0.29001741
-0.42564267
0.097837199
0.099550501
0.16339283
0.32305134
0.3397976
0.057030709
0.11573681
0.22323827
-0.069990128
0.063394166
0.10226541
0.096140445
0.18910609
0.053556773
0.14463957
0.044734843
0.082789838
0.018517732
-0.0020178634
0.033031556
-0.01678335
-0.018782652
0.013379189
-0.01711096
-0.017885969
0.046554368
-0.0073758944
-0.0064469586
0.080605952
-0.020836266
-0.0052721729
0.096636993
-0.057332967
-0.030249536
0.056940573
-0.11372869
-0.076418935
-0.094807682
-0.16232949
-0.11382238
-0.27678447
-0.12549062
-0.09397764
-0.20098807
0.031625098
0.030296387
-0.0055813448
0.13319392
0.1182932
0.011302513
0.095197097
0.097808182
-0.0061925645
0.076149927
0.059294137
0.057104447
0.096394598
0.039050998
0.07080149
0.022167896
0.047662905
0.016393568
0.00089482129
0.032733595
-0.0020442113
-0.0064654365
0.024794632
-0.0097110702
-0.008948372
0.031593638
-0.013137373
-0.0080988094
0.041673525
-0.022951721
-0.009013258
0.039927415
-0.041767065
-0.018501559
0.0093911345
-0.065804074
-0.033612409
-0.057883921
-0.078437736
-0.043256213
-0.11988394
-0.054035445
-0.030803193
-0.099013089
0.0086903579
0.010506733
-0.032132636
0.055240919
0.042341776
-0.0074927544
0.058146963
0.042993896
0.0038126492
0.054830302
0.031598225
0.031936446
0.055171566
0.020958623
0.040918498
0.011332714
0.029435583
0.012894862
0.0013508292
0.025092178
0.0019120743
-0.0024216471
0.021604714
-0.0054964878
-0.0045607541
0.021907089
-0.011042102
-0.0054664995
0.022295528
-0.018179097
-0.0067927832
0.015922859
-0.028183486
-0.010528293
-0.0031570818
-0.037767466
-0.015273052
-0.033473615
-0.039620418
-0.017005294
-0.057178473
-0.025604261
-0.010655881
-0.052199042
0.0017377705
0.0039817796
-0.02823079
0.024453921
0.01621856
-0.01106851
0.032974105
0.019072142
0.0021513303
0.034747474
0.016043944
0.017699256
0.03324844
0.011355183
0.02519356
0.0063408118
0.018579872
0.0093249102
0.0011856633
0.017707867
0.002539711
-0.00091176704
0.016077275
-0.0031427118
-0.0023691779
0.014775153
-0.0079940192
-0.0033131564
0.012260264
-0.013030618
-0.0043151163
0.00634018
-0.018202396
-0.0058109993
-0.0049993051
-0.021990992
-0.0072328329
-0.019455433
-0.021169576
-0.007114249
-0.029802294
-0.013322581
-0.0039981847
-0.028747308
-0.00019226289
0.0016849579
-0.019575202
0.011732103
0.0067172865
-0.0094384555
0.018591207
0.008733127
0.00018413028
0.021178345
0.0081449322
0.0096167509
0.02042736
0.0062010187
0.01605907
0.0037403361
0.011851163
0.0065030191
0.0008715973
0.012044282
0.0022027034
-0.00031688293
0.011228557
-0.0018111561
-0.0012338173
0.0097397654
-0.0054303604
-0.0019283928
0.007085803
-0.0087914097
-0.0025454613
0.0025533073
-0.01164213
-0.0031782235
-0.0041747484
-0.013131677
-0.0035619626
-0.011602363
-0.011972433
-0.003184338
-0.016643234
-0.0074594019
-0.0016348402
-0.016749674
-0.00059424212
0.00078380626
-0.012689523
0.0060729302
0.0030123913
-0.0069140858
0.010656398
0.0041618578
-0.0006945684
0.012824936
0.0041695749
0.0052320147
0.012677619
0.0033858747
0.010339285
0.0021916491
0.0075625967
0.0044274504
0.00058867773
0.0080416608
0.0016895235
-8.6191076e-05
0.007611882
-0.0010244165
-0.00064467121
0.0063786627
-0.0035593103
-0.0010987783
0.0042353471
-0.0057735192
-0.0014616298
0.0010644626
-0.0074106675
-0.0017387433
-0.0030131206
-0.0080236409
-0.0018152481
-0.0070832217
-0.0070725389
-0.001506233
-0.0097617557
-0.004404206
-0.00071546101
-0.010071473
-0.00059469222
0.00038422213
-0.0081035052
0.0032771716
0.001434956
-0.0047721044
0.0062193718
0.0020663952
-0.00088454531
0.0078082359
0.0021823211
0.0028826781
0.0079278459
0.0018677042
0.0066765352
0.0012864223
0.004854028
0.0029460645
0.00038105253
0.0053339282
0.0012334293
-5.8298307e-06
0.0050792545
-0.00057434948
-0.00034268496
0.0041649828
-0.0022839323
-0.00061896786
0.002598737
-0.0037324686
-0.00082846699
0.00045219532
-0.0047160734
-0.00095759348
-0.002060035
-0.0049884758
-0.00094901036
-0.0044107903
-0.0043103622
-0.00074342568
-0.0059445776
-0.0027031435
-0.00033127897
-0.0061971192
-0.00049177215
0.00020528122
-0.0051634206
0.0018358047
0.00073148963
-0.0031957038
0.0036970937
0.0010743168
-0.00078077416
0.0047751288
0.0011684625
0.0016257269
0.0049555507
0.0010332625
0.004282506
0.00074649777
0.0031634873
0.0019039071
0.00023079089
0.0035290865
0.00082578598
1.0875182e-05
0.0033712776
-0.00035935991
-0.00018466659
0.0027171489
-0.0014933981
-0.00035134356
0.0016158183
-0.0024298578
-0.00047476142
0.00018061244
-0.0030132944
-0.00053930766
-0.0013805802
-0.0031270136
-0.00050907991
-0.0028013901
-0.0026638682
-0.00038284492
-0.0037285838
-0.0016556452
-0.00015422075
-0.003868291
-0.00029707927
0.00013387149
-0.0033045215
0.0010613455
0.00042129881
-0.0021237201
0.0022451689
0.00059154677
-0.0006066358
0.0029565726
0.00064428386
0.00095003345
0.00311567
0.00057758261
0.002745559
0.00041681402
0.0020870761
0.0012157041
0.00012486448
0.0023455349
0.00052815638
9.3380564e-06
0.0022383144
-0.00023771833
-0.00010182578
0.0017812832
-0.00097597202
-0.00020305607
0.0010331166
-0.0015800625
-0.00028257219
6.7781788e-05
-0.0019391653
-0.0003071088
-0.00091627529
-0.0019733795
-0.0002802497
-0.0017916383
-0.001664888
-0.00020300577
-0.0023651385
-0.0010366604
-7.0015708e-05
-0.0025105725
-0.00019297639
0.00010532647
-0.0021224195
0.00068691234
0.00023075794
-0.0014149622
0.001386367
0.00032781255
-0.00045071285
0.0018295103
0.00036513666
0.00057813197
0.0019387257
0.0003358511
0.0017017192
0.00024929591
0.0013999439
0.00075459998
8.0982437e-05
0.001580523
0.00032250704
1.2169958e-05
0.0015007983
-0.00016104182
-5.7046818e-05
0.0011777456
-0.000625257
-0.00012290812
0.00067460668
-0.0009997957
-0.00017448409
3.4243392e-05
-0.0012105974
-0.00019159102
-0.000607151
-0.0012166001
-0.00017277962
-0.001162848
-0.0010152002
-0.00012267659
-0.0015203147
-0.00062909952
-4.2469257e-05
-0.0016305074
-0.00012909407
5.3583753e-05
-0.0014241674
0.00039450565
0.00012928263
-0.00097344413
0.00082802561
0.00018787844
-0.00034352618
0.0011049623
0.00020991883
0.00034015168
0.001184224
0.00019488633
0.0010585873
0.00015126805
0.00096812622
0.00043668306
5.1394123e-05
0.0010974307
0.00018120827
9.1169636e-06
0.0010370419
-0.00010420901
-3.6957906e-05
0.00080362671
-0.0003757952
-8.4220861e-05
0.00046422973
-0.00058793894
-0.00012204238
2.8777656e-05
-0.0007044066
-0.00013563062
-0.00040529612
-0.00069847449
-0.00012058783
-0.0007763959
-0.00057740514
-8.47966e-05
-0.0010201874
-0.00035840647
-3.099627e-05
-0.0011072893
-8.140193e-05
2.9410988e-05
-0.00099113099
0.00021265562
8.0420899e-05
-0.00069621527
0.00046192366
0.00011578174
-0.0002665837
0.00062608225
0.00012910353
0.0002140145
0.00067996684
0.00012054408
0.00061445575
9.2887834e-05
0.0007126886
0.00019842756
2.8471231e-05
0.00081215828
7.8709832e-05
8.2610392e-07
0.00076566517
-5.4901868e-05
-3.3121537e-05
0.00059166609
-0.00017896034
-6.9038157e-05
0.00034798606
-0.00027040527
-9.9982465e-05
3.5011948e-05
-0.00032414725
-0.00011049942
-0.0002839878
-0.00031628935
-9.623782e-05
-0.0005572297
-0.00025916617
-6.5537936e-05
-0.00074306017
-0.00016109048
-2.1337762e-05
-0.00081336712
-3.7750052e-05
2.8406507e-05
-0.00074214275
9.6110038e-05
6.604752e-05
-0.00053224824
0.00020772582
8.4914122e-05
-0.00021338141
0.00028595394
9.1098859e-05
0.00014827029
0.00031359609
8.0760608e-05
0.00028346182
5.57761e-05
0.00059289531
1.5689248e-05
0.00067831882
-7.0197416e-06
0.00064136843
-3.4704374e-05
0.00049992683
-6.3784486e-05
0.00029412601
-9.1978151e-05
4.2830979e-05
-9.9130395e-05
-0.00022680959
-8.3798213e-05
-0.00045900515
-5.5021673e-05
-0.00061941153
-1.4105549e-05
-0.00067927065
3.2691283e-05
-0.00063031799
6.3354744e-05
-0.00045372645
7.4615222e-05
-0.00018583693
7.589054e-05
0.00011807104
6.2346594e-05
3.6654983e-05
0.41380545
0.01087557
0.0050982188
0.15049508
-0.0574594
-0.00073983882
0.11466885
-0.0076398255
-0.011814346
0.35063804
0.039614032
-0.027265895
0.74649887
-0.10466039
-0.1364561
0.89714461
-0.075031635
-0.080866608
0.58780341
-0.023997248
0.041319073
0.43655702
-0.19552293
-0.31313571
0.22049639
-0.16710318
-0.42536089
0.25260422
0.099374522
0.11978809
0.57928698
0.16800718
0.36746955
0.85071473
-0.10710162
0.26417106
0.8920875
-0.012141781
0.036001255
0.55767146
0.30005616
0.053879502
0.14605158
0.10199698
0.10948604
0.020330895
0.0033143627
0.022808282
-0.023140735
-0.015963999
0.0076783889
-0.011172038
-0.015956196
0.082992199
0.0062656236
-0.015706641
0.087781378
-0.042996005
-0.044696774
0.091126577
-0.059614074
-0.0597319
0.068762106
-0.080164686
-0.081821411
-0.10223759
-0.15409802
-0.16966741
-0.29485564
-0.11015077
-0.15441191
-0.19167378
0.044266885
0.051914443
0.030399077
0.10744497
0.17874272
-0.044696789
0.034900645
0.1563665
-0.087489193
0.05365956
0.079273841
0.079601514
0.13337767
0.05314113
0.09076785
0.043607228
0.065386306
0.020726297
0.0049702246
0.034042972
-0.0045250006
-0.0060817734
0.025029722
-0.0082511489
-0.011744625
0.048158558
-0.0082954833
-0.015058493
0.053950667
-0.027348754
-0.026753272
0.050356122
-0.046888396
-0.039260885
0.01956955
-0.071173011
-0.054530968
-0.074462053
-0.091839124
-0.082120063
-0.15293911
-0.06147703
-0.064014182
-0.11400902
0.012726968
0.0229204
-0.027919939
0.058027171
0.082062416
-0.026244807
0.046026481
0.084982989
-0.022516173
0.054168059
0.055030049
0.040596404
0.075236999
0.034102397
0.056421869
0.024352649
0.040257778
0.016744827
0.0043329771
0.030278822
0.0019766422
-0.0027655666
0.025792779
-0.0053281478
-0.0073686154
0.030643519
-0.010489975
-0.010930097
0.032084015
-0.021300921
-0.01644093
0.024779411
-0.034047756
-0.023850346
-0.00029625008
-0.047573862
-0.032126868
-0.045425101
-0.052180992
-0.037735259
-0.078636142
-0.033793829
-0.025175908
-0.067264264
0.0022122228
0.0092897793
-0.031878857
0.029213042
0.035802498
-0.019167929
0.034833226
0.041414982
-0.0061783792
0.04039578
0.032375621
0.022383086
0.045431554
0.022248266
0.035607254
0.014535707
0.025666058
0.012712834
0.0032518257
0.022965672
0.0034159963
-0.0011426047
0.020703523
-0.003306708
-0.0043597231
0.020592467
-0.0088858462
-0.0069500457
0.018572706
-0.015810006
-0.010118043
0.011155393
-0.023517114
-0.013850659
-0.0048993858
-0.029745243
-0.017093151
-0.027112432
-0.029724055
-0.017352558
-0.042548455
-0.018937036
-0.010066533
-0.040050216
-0.00054651409
0.0041069093
-0.025409365
0.014966626
0.01588081
-0.01411337
0.022696532
0.019926789
-0.0024982626
0.026970174
0.017849204
0.01268546
0.028090054
0.013482723
0.022561299
0.008643034
0.016482687
0.0090072008
0.0021255733
0.016254638
0.0031333125
-0.00042323004
0.015132903
-0.0020075075
-0.0024893591
0.013774101
-0.0066090544
-0.0042734046
0.010777865
-0.011268337
-0.0060547069
0.0049032678
-0.015590036
-0.0077462608
-0.0048785765
-0.018320446
-0.0088681062
-0.01633386
-0.017237535
-0.0080832601
-0.024115887
-0.010955451
-0.0042470291
-0.023767146
-0.0010887092
0.0019600448
-0.017562751
0.0080314427
0.0073409067
-0.010029822
0.014026991
0.0098335678
-0.001760766
0.017217042
0.0095654106
0.0071563249
0.017612572
0.0077389909
0.014505667
0.005113793
0.010656448
0.0062188913
0.0013792629
0.011128651
0.0024326968
-0.00012900561
0.010533615
-0.001222004
-0.001408664
0.0091221612
-0.0046006703
-0.0025134262
0.0064525945