/*--------------------------------*- C++ -*----------------------------------*\
| =========                 |                                                 |
| \\      /  F ield         | OpenFOAM: The Open Source CFD Toolbox           |
|  \\    /   O peration     | Version:  3.0.1                                 |
|   \\  /    A nd           | Web:      www.OpenFOAM.org                      |
|    \\/     M anipulation  |                                                 |
\*---------------------------------------------------------------------------*/
FoamFile
{
    version     2.0;
    format      ascii;
    class       volScalarField;
    location    "0.2";
    object      sigmazz;
}
// * * * * * * * * * * * * * * * * * * * * * * * * * * * * * * * * * * * * * //

dimensions      [0 2 -2 0 0 0 0];

internalField   nonuniform List<scalar> 
3375
(
-1.035594e-05
2.7535669e-05
-0.00026096009
-2.3345651e-05
0.000242256
-4.4045059e-05
-5.5782444e-06
6.6342023e-05
7.2272061e-05
-2.912616e-05
-5.69452e-05
-6.0096042e-05
4.3770528e-05
6.9524981e-05
-3.2391638e-05
-2.3690263e-06
2.1127484e-06
-9.140045e-06
-7.0078653e-06
1.6015177e-07
-8.1394996e-06
-1.0807984e-06
8.554823e-06
7.415447e-06
4.6515007e-07
9.318296e-07
4.9140734e-06
8.571904e-06
2.2804327e-07
-6.2045441e-06
-1.3875872e-06
-3.3203086e-06
-1.6889102e-05
-3.0449624e-06
1.1739529e-05
-2.5657485e-06
-5.6807371e-06
-8.4017415e-06
-9.9555045e-06
6.1496174e-06
1.4898015e-05
3.5808089e-06
6.9420585e-06
8.4304101e-06
-4.169003e-07
-5.982343e-07
-1.7918015e-06
-4.0894353e-06
-1.3948433e-06
1.3096318e-06
-1.5895428e-06
-3.7127815e-06
-5.6808226e-06
-4.9741449e-06
2.9568755e-06
7.8143201e-06
4.7500043e-06
3.8048599e-06
2.9699928e-06
4.1082896e-07
-1.6260023e-07
-7.5755039e-07
-1.2819295e-06
-7.8034905e-07
-2.9830745e-07
-1.1207724e-06
-2.0860606e-06
-2.7181328e-06
-1.9070419e-06
1.177771e-06
3.2538475e-06
2.6993447e-06
2.1366407e-06
1.5513211e-06
5.2172002e-07
1.235545e-08
-3.0461179e-07
-5.1601037e-07
-4.6643213e-07
-4.2425295e-07
-7.2395976e-07
-1.084845e-06
-1.2250104e-06
-7.3027757e-07
4.6982399e-07
1.3438414e-06
1.3749978e-06
1.1682448e-06
8.5944795e-07
4.0619687e-07
5.7561138e-08
-1.165591e-07
-2.3748215e-07
-2.7649971e-07
-3.1612667e-07
-4.396384e-07
-5.6089045e-07
-5.5946809e-07
-2.9754861e-07
1.9341587e-07
5.8216076e-07
6.8580253e-07
6.3266985e-07
4.8994491e-07
2.7819457e-07
5.9684743e-08
-4.177106e-08
-1.1958157e-07
-1.6402239e-07
-2.0192581e-07
-2.5563631e-07
-2.9275142e-07
-2.6506951e-07
-1.3000072e-07
8.5834715e-08
2.7002599e-07
3.476122e-07
3.4212084e-07
2.7840653e-07
1.760847e-07
4.7119354e-08
-1.2142342e-08
-6.1086982e-08
-9.4760596e-08
-1.2111665e-07
-1.4615721e-07
-1.567076e-07
-1.3353285e-07
-6.1830093e-08
4.0248522e-08
1.3188951e-07
1.7937762e-07
1.8718652e-07
1.5994371e-07
1.0937686e-07
3.174358e-08
-2.4161923e-09
-3.1657785e-08
-5.3589237e-08
-7.2000752e-08
-8.4159037e-08
-8.5693057e-08
-6.7907406e-08
-3.0463158e-08
1.848494e-08
6.5075961e-08
9.3855197e-08
1.0291848e-07
9.2432577e-08
6.6732043e-08
2.0404192e-08
1.618252e-09
-1.5101891e-08
-3.0044848e-08
-4.1450971e-08
-5.0605148e-08
-4.9226468e-08
-3.8017294e-08
-1.6575526e-08
7.3184462e-09
3.3539808e-08
5.1404039e-08
5.8622589e-08
5.4058259e-08
4.0610675e-08
1.1170818e-08
1.5769019e-09
-8.3830666e-09
-1.8738998e-08
-2.6323812e-08
-3.0366254e-08
-2.9578094e-08
-2.3423008e-08
-9.6404109e-09
5.6566171e-09
2.0164068e-08
3.0089284e-08
3.3805049e-08
2.9841593e-08
2.1445995e-08
6.0422233e-09
1.3026474e-09
-4.6555757e-09
-1.2186374e-08
-1.7956452e-08
-2.0621336e-08
-1.9996532e-08
-1.6003786e-08
-6.3266967e-09
5.088723e-09
1.4088251e-08
1.8773491e-08
1.9847041e-08
1.6892395e-08
1.1108989e-08
3.6128338e-09
-4.6253292e-10
-5.1571428e-09
-1.0325409e-08
-1.4532437e-08
-1.558347e-08
-1.3941043e-08
-9.5065944e-09
-2.8867454e-09
4.6537251e-09
1.0315049e-08
1.2671779e-08
1.2468186e-08
1.0740793e-08
7.1479562e-09
2.846514e-09
-1.8647877e-09
-6.3784098e-09
-9.8141053e-09
-1.2708832e-08
-1.3236088e-08
-1.0966934e-08
-6.015382e-09
-1.2759239e-09
3.9301988e-09
8.3488008e-09
1.0289409e-08
9.8048162e-09
8.6723937e-09
6.0586272e-09
-1.1196377e-05
1.586915e-05
3.0170433e-05
-4.9226172e-05
-2.5969614e-05
-1.3716667e-05
-7.7381119e-05
-0.00051213739
-0.001196893
0.00051983111
0.0012059134
4.9918208e-05
8.9390566e-05
-1.2591925e-06
-2.5612253e-05
-2.9708974e-07
2.5830198e-06
1.9625009e-06
-6.5339348e-06
-1.0702311e-05
-1.7061755e-05
-2.462909e-05
-3.4627455e-05
-5.2743032e-05
2.4590664e-05
6.4029687e-05
2.7860344e-05
2.3364528e-05
3.471849e-06
-2.5650407e-06
-1.0893641e-06
-1.487075e-06
-2.5074577e-06
-3.8383634e-06
-1.9353928e-06
-5.252466e-06
-1.6502862e-05
-4.9225025e-05
-7.1411283e-05
3.1793973e-05
8.1317855e-05
2.2868314e-05
1.0772275e-05
5.3623481e-06
3.5660199e-07
-1.9273359e-07
-1.1026794e-06
-1.6735378e-06
-1.410125e-06
-1.3099054e-06
-3.4411207e-06
-7.737365e-06
-1.4985793e-05
-1.5729498e-05
7.2532447e-06
2.0118027e-05
1.0283465e-05
5.5388555e-06
3.2045731e-06
1.0342545e-06
6.8609726e-08
-4.980415e-07
-8.1145829e-07
-8.6398699e-07
-9.8841733e-07
-1.8812129e-06
-3.4378763e-06
-4.9977537e-06
-4.0198553e-06
1.9674415e-06
5.777173e-06
4.2671658e-06
2.8075371e-06
1.8514714e-06
8.6101852e-07
1.2476769e-07
-2.0529568e-07
-4.1600436e-07
-5.2283866e-07
-6.6273619e-07
-1.0469057e-06
-1.5569662e-06
-1.8415722e-06
-1.2000295e-06
6.3499797e-07
1.9294105e-06
1.8387436e-06
1.4289514e-06
1.0316081e-06
5.6892033e-07
1.1176083e-07
-7.7268172e-08
-2.1538703e-07
-3.1077287e-07
-4.1227014e-07
-5.7563264e-07
-7.3489496e-07
-7.4580044e-07
-4.1661333e-07
2.3655646e-07
7.384592e-07
8.3552223e-07
7.3663572e-07
5.6969669e-07
3.470798e-07
8.2295614e-08
-2.6806867e-08
-1.1557265e-07
-1.825023e-07
-2.4457463e-07
-3.1273033e-07
-3.5973929e-07
-3.2774417e-07
-1.6518867e-07
9.8799885e-08
3.1770066e-07
4.0047862e-07
3.854006e-07
3.1489642e-07
2.0704243e-07
5.6336813e-08
-7.9822754e-09
-6.1858607e-08
-1.0414973e-07
-1.3994572e-07
-1.7104461e-07
-1.8291654e-07
-1.5535044e-07
-7.3583782e-08
4.4167604e-08
1.4875913e-07
1.9982783e-07
2.050622e-07
1.7583936e-07
1.2315976e-07
3.5718353e-08
-1.3859315e-09
-3.2664097e-08
-5.8631309e-08
-8.0575741e-08
-9.4863004e-08
-9.657022e-08
-7.6611284e-08
-3.4331398e-08
2.0318003e-08
7.264276e-08
1.0346437e-07
1.1129155e-07
9.9074465e-08
7.1463636e-08
2.1073133e-08
2.0004883e-09
-1.5120009e-08
-3.1382936e-08
-4.5118873e-08
-5.5015074e-08
-5.4345596e-08
-4.1920518e-08
-1.8334522e-08
1.0161462e-08
3.6626042e-08
5.5544079e-08
6.2183434e-08
5.6712653e-08
4.1699027e-08
1.0611407e-08
1.325034e-09
-8.3157902e-09
-1.867522e-08
-2.7297155e-08
-3.3327024e-08
-3.2617814e-08
-2.5470029e-08
-1.0982581e-08
7.002146e-09
2.2971971e-08
3.2675224e-08
3.5451637e-08
3.1071021e-08
2.1593173e-08
5.2130302e-09
4.5100237e-10
-5.3568888e-09
-1.2625404e-08
-1.871855e-08
-2.2253539e-08
-2.1461949e-08
-1.6674555e-08
-6.6051485e-09
5.7939e-09
1.5923247e-08
2.0325344e-08
2.0680586e-08
1.7155024e-08
1.0788139e-08
2.9468079e-09
-1.1500333e-09
-5.8327974e-09
-1.1133263e-08
-1.5303299e-08
-1.6445379e-08
-1.4765627e-08
-1.0348451e-08
-3.0677823e-09
5.0236162e-09
1.110104e-08
1.3731794e-08
1.3375221e-08
1.083704e-08
6.6787943e-09
2.1090097e-09
-2.5316602e-09
-6.9168892e-09
-1.0867211e-08
-1.3814054e-08
-1.3566836e-08
-1.1214071e-08
-6.8432431e-09
-1.3638233e-09
4.6091997e-09
8.8529985e-09
1.1044416e-08
1.065087e-08
8.8054754e-09
5.3656918e-09
7.5101479e-06
-0.00010285365
4.3629935e-05
0.00011841903
-4.3898738e-05
-1.3622196e-05
8.285429e-06
4.6721269e-05
1.4582489e-05
-2.8775951e-05
-4.0597659e-05
-7.5082689e-05
-7.6698325e-05
6.1318275e-05
8.0898626e-05
3.9946426e-06
2.6216273e-06
8.9921838e-06
2.437912e-06
-1.2818564e-05
-9.2291608e-06
-2.9715423e-06
4.2804785e-06
2.1282787e-07
-2.8782159e-06
-2.0848146e-06
1.412989e-06
1.1010215e-06
6.5057523e-07
4.4797135e-06
1.3709018e-06
-4.8509072e-06
1.2712369e-06
5.1244952e-06
-3.1389745e-06
-4.8178883e-06
-5.874243e-06
-1.0668768e-05
-1.4310162e-05
4.9806476e-06
1.4616043e-05
-7.2054074e-07
-1.5764645e-06
9.4443939e-06
9.1060574e-06
6.7380387e-07
-8.7871549e-07
-1.5364893e-07
3.1999601e-07
-1.5228394e-06
-2.8113163e-06
-4.267034e-06
-6.5010172e-06
-6.0695552e-06
2.4012281e-06
7.3127973e-06
3.3538535e-06
2.1303723e-06
3.4238511e-06
2.723025e-06
3.9983447e-07
-2.0237524e-07
-2.9634888e-07
-3.8194893e-07
-9.5215782e-07
-1.6060443e-06
-2.3692638e-06
-3.0132876e-06
-2.2288725e-06
9.6933793e-07
3.0293883e-06
2.1778771e-06
1.6065693e-06
1.7298023e-06
1.256052e-06
2.3529187e-07
-5.8686322e-08
-2.2048441e-07
-3.6105409e-07
-6.0057844e-07
-9.030352e-07
-1.2157306e-06
-1.3325309e-06
-8.2678359e-07
3.9160732e-07
1.2413777e-06
1.1905104e-06
1.0014454e-06
9.1075251e-07
6.4023907e-07
1.4652714e-07
-1.7757471e-08
-1.3868137e-07
-2.437491e-07
-3.6565628e-07
-5.0338103e-07
-6.1369516e-07
-5.9704368e-07
-3.2615081e-07
1.659014e-07
5.3404546e-07
6.1532235e-07
5.7117299e-07
4.9444672e-07
3.4273033e-07
9.1344661e-08
-3.9682177e-09
-8.2788183e-08
-1.5022381e-07
-2.1575457e-07
-2.7529531e-07
-3.1040188e-07
-2.7728111e-07
-1.3992847e-07
7.4636598e-08
2.4506817e-07
3.1620055e-07
3.1463778e-07
2.7256604e-07
1.9210655e-07
5.7451773e-08
7.671792e-10
-4.7244591e-08
-8.7684304e-08
-1.2327235e-07
-1.50834e-07
-1.6052103e-07
-1.3540003e-07
-6.5125143e-08
3.5277193e-08
1.1980208e-07
1.6422159e-07
1.7174558e-07
1.5190804e-07
1.0941347e-07
3.540724e-08
3.3672628e-09
-2.3873029e-08
-4.8034759e-08
-6.8831288e-08
-8.4676342e-08
-8.6879556e-08
-6.9734806e-08
-3.3103097e-08
1.4844242e-08
6.1974756e-08
8.8064394e-08
9.5392101e-08
8.6111044e-08
6.2433026e-08
1.7909292e-08
1.3842608e-09
-1.3238348e-08
-2.7794438e-08
-4.0634791e-08
-4.6781779e-08
-4.7643185e-08
-3.6598102e-08
-1.4885301e-08
1.0531884e-08
3.0365691e-08
4.7389955e-08
5.3638088e-08
4.9146641e-08
3.7076222e-08
9.2335821e-09
1.838576e-09
-6.2560347e-09
-1.5762236e-08
-2.4711036e-08
-2.8329231e-08
-2.9260916e-08
-2.3094784e-08
-9.5539727e-09
7.9365822e-09
1.8771537e-08
2.8182911e-08
3.0867423e-08
2.696204e-08
1.9081705e-08
4.0767435e-09
7.2141143e-10
-3.9057431e-09
-1.0433183e-08
-1.6946961e-08
-1.951152e-08
-1.969391e-08
-1.549687e-08
-6.0988328e-09
6.2805742e-09
1.4169625e-08
1.8266605e-08
1.8343513e-08
1.4748055e-08
9.087985e-09
1.2388962e-09
-1.3776361e-09
-4.8685727e-09
-9.4187376e-09
-1.3539185e-08
-1.5444554e-08
-1.3894714e-08
-9.8745336e-09
-2.9005728e-09
5.3833521e-09
1.126086e-08
1.3198198e-08
1.2318547e-08
9.2907244e-09
5.2903036e-09
-1.407838e-10
-3.2243911e-09
-6.3441275e-09
-9.526177e-09
-1.1824357e-08
-1.3713091e-08
-1.0822252e-08
-6.6858934e-09
-1.2131464e-09
4.8423231e-09
1.0307356e-08
1.1317179e-08
1.0137024e-08
7.5333089e-09
4.0131501e-09
9.6168879e-06
2.1933031e-05
1.2022225e-05
-2.2199559e-06
-6.3676405e-05
-2.2029403e-05
7.0063606e-05
9.7301035e-05
0.00014497948
-4.9331502e-05
-0.00015543789
-8.4204189e-05
-2.3024958e-05
4.5464632e-05
6.3185583e-07
3.7334255e-06
5.9589546e-06
4.622166e-06
-1.4820145e-06
-9.3463442e-06
-3.0920655e-06
1.2970649e-05
3.1236507e-05
3.3827859e-05
-1.3373988e-05
-3.8197909e-05
-1.6632036e-05
-6.0627289e-06
-2.2140297e-06
-5.7585095e-07
1.4508717e-06
1.0660667e-06
1.4623447e-06
2.6067173e-07
-5.2288972e-06
-2.4036735e-06
4.2417036e-06
5.1722862e-06
4.9407427e-06
-5.1439662e-07
-5.663479e-06
-8.0926923e-06
-3.2180811e-06
4.7820225e-06
2.6766973e-06
6.9318806e-07
2.7709037e-07
3.1743557e-07
-2.6072967e-08
-1.4039171e-06
-1.1836092e-06
-1.680581e-07
-2.7649667e-09
1.6448583e-07
2.3038013e-07
-7.1105333e-08
-1.2423977e-06
-1.9203965e-07
1.6617265e-06
1.3053442e-06
3.5815683e-07
9.5326837e-08
7.5259467e-09
-1.7025218e-07
-6.3645018e-07
-7.534961e-07
-6.7269472e-07
-6.8374758e-07
-3.4676423e-07
2.9223726e-07
5.5238083e-07
1.670148e-07
3.8723968e-07
8.7908443e-07
7.3396272e-07
1.9688775e-07
4.1038089e-08
-5.7432448e-08
-1.7277188e-07
-3.5240194e-07
-4.7538664e-07
-5.280681e-07
-4.9950117e-07
-2.5243538e-07
1.5088005e-07
3.881032e-07
3.4134175e-07
3.9224119e-07
5.012413e-07
4.0718599e-07
1.1591761e-07
2.0762802e-08
-5.4788237e-08
-1.2936586e-07
-2.1638188e-07
-2.8751403e-07
-3.232026e-07
-2.8845261e-07
-1.4190404e-07
7.468941e-08
2.2139541e-07
2.5786174e-07
2.7788939e-07
2.8929127e-07
2.2518301e-07
6.7705574e-08
1.0005919e-08
-4.0822457e-08
-8.6890537e-08
-1.3159155e-07
-1.6657255e-07
-1.8158938e-07
-1.5476543e-07
-7.5210683e-08
3.7045016e-08
1.2194329e-07
1.6107831e-07
1.7374488e-07
1.6720082e-07
1.2774356e-07
4.0324992e-08
4.575073e-09
-2.6751249e-08
-5.3562425e-08
-7.772573e-08
-9.5491835e-08
-1.0048971e-07
-8.2786862e-08
-3.9836638e-08
1.833755e-08
6.7386415e-08
9.4367228e-08
1.0327279e-07
9.6900523e-08
7.3797781e-08
2.340984e-08
4.1466155e-09
-1.3853379e-08
-2.9890974e-08
-4.4406929e-08
-5.4157072e-08
-5.6575666e-08
-4.5127835e-08
-2.1769057e-08
9.1475822e-09
3.5155509e-08
5.3456392e-08
5.9774383e-08
5.6141612e-08
4.4105642e-08
1.4871169e-08
4.0032842e-09
-5.4861908e-09
-1.6066473e-08
-2.4961084e-08
-3.1527078e-08
-3.3451626e-08
-2.7603257e-08
-1.2806565e-08
3.1559563e-09
2.0798931e-08
3.0620071e-08
3.4833019e-08
3.2030897e-08
2.3830369e-08
7.792063e-09
2.9855123e-09
-2.2961562e-09
-9.169327e-09
-1.5417785e-08
-1.9262419e-08
-2.0571588e-08
-1.6972923e-08
-7.6093687e-09
3.5681594e-09
1.351343e-08
1.9095029e-08
2.0748063e-08
1.817584e-08
1.2728677e-08
3.8738767e-09
1.5363061e-09
-1.5170439e-09
-6.2250488e-09
-1.0938107e-08
-1.3599095e-08
-1.4114179e-08
-1.1283672e-08
-4.5772837e-09
3.4425187e-09
1.0859138e-08
1.3189261e-08
1.2722362e-08
9.8989947e-09
5.7246135e-09
1.0462524e-09
-4.9783682e-10
-2.4838944e-09
-5.7378803e-09
-9.182351e-09
-1.0713359e-08
-9.9951473e-09
-7.1656952e-09
-1.9048383e-09
4.3051782e-09
8.5262532e-09
9.7174562e-09
8.592946e-09
6.0121918e-09
2.8115093e-09
-4.7408723e-10
-1.9774606e-09
-3.5402722e-09
-5.874036e-09
-8.4038975e-09
-9.6125015e-09
-7.771341e-09
-4.81321e-09
-4.9123357e-10
4.8726666e-09
7.7487455e-09
8.0603532e-09
6.7550868e-09
4.513148e-09
1.5839685e-09
8.0922326e-06
4.5941173e-06
8.2460887e-06
-1.1288205e-05
-4.8634855e-06
4.3215401e-06
-4.7031059e-05
4.8527541e-05
0.00011359783
-2.8605148e-05
-4.7836579e-05
-0.00012757951
7.6523783e-06
9.6247266e-05
-2.4612874e-05
1.9724867e-06
5.5390226e-06
2.6618767e-06
-3.4846121e-06
-2.7270297e-06
1.7692635e-06
6.7365083e-06
2.0213881e-05
2.1327784e-05
-7.832487e-06
-2.0019795e-05
-1.6048551e-05
-4.1893031e-06
-8.0326117e-07
-5.8871042e-06
5.1858341e-07
1.6040468e-07
1.0328513e-06
6.2991517e-07
-9.0141033e-08
6.7895478e-07
-1.7506193e-07
7.3559632e-06
1.0352569e-05
-1.7846277e-06
-8.4235346e-06
-1.5342986e-05
-2.9493316e-06
7.7010084e-06
7.01119e-08
2.5342795e-07
2.6407879e-07
4.2892204e-07
3.53104e-07
8.4316717e-08
3.436827e-07
7.154491e-07
2.1695105e-06
2.3463939e-06
-4.5111441e-07
-2.4961874e-06
-4.1060203e-06
-1.3728143e-06
1.2760608e-06
1.5037791e-07
1.1828387e-07
7.8176035e-08
1.6611269e-07
1.763114e-07
6.18539e-08
9.1841195e-08
1.6613672e-07
5.4760289e-07
6.3868425e-07
-5.9191968e-08
-7.0012648e-07
-1.2727349e-06
-5.0838577e-07
3.579899e-07
1.7619095e-07
6.474498e-08
4.2387397e-08
5.9669992e-08
5.5752757e-08
1.0478683e-08
-1.2350757e-08
-7.7568333e-10
9.3091057e-08
1.4359225e-07
-2.1174883e-09
-1.7923209e-07
-3.3328217e-07
-1.3887841e-07
1.1813025e-07
1.1326436e-07
3.8991377e-08
2.2307461e-08
1.5463595e-08
4.81858e-09
-1.8243082e-08
-3.7446087e-08
-4.0199212e-08
-1.4285023e-08
1.5078483e-08
6.0052217e-09
-3.3067818e-08
-6.339545e-08
-1.1275169e-08
6.127215e-08
6.4195496e-08
2.3837377e-08
9.4988683e-09
-1.5905038e-09
-1.1348035e-08
-2.3607432e-08
-3.5255097e-08
-3.82684e-08
-2.8950947e-08
-9.8672267e-09
5.3015267e-09
5.7513783e-09
5.02763e-09
2.1101978e-08
3.973687e-08
3.7712378e-08
1.574152e-08
4.6794499e-09
-4.5453178e-09
-1.1690957e-08
-1.9287808e-08
-2.648063e-08
-2.8586033e-08
-2.3942963e-08
-1.1961202e-08
1.785332e-09
1.3034775e-08
1.7051597e-08
2.3162632e-08
2.6870185e-08
2.3012691e-08
9.7782503e-09
3.8045131e-09
-2.443843e-09
-7.00766e-09
-1.2191093e-08
-1.720689e-08
-1.965393e-08
-1.6417338e-08
-9.9989707e-09
-5.0478933e-10
9.0962233e-09
1.438106e-08
1.6927033e-08
1.7155547e-08
1.481894e-08
6.0273203e-09
2.7549156e-09
1.1607047e-09
-3.204322e-09
-7.0654547e-09
-1.0627229e-08
-1.3226953e-08
-1.2509066e-08
-5.8808867e-09
-7.288325e-10
4.6894533e-09
8.5859837e-09
1.1673171e-08
1.2247267e-08
9.582884e-09
3.018825e-09
1.8592464e-09
1.1335437e-09
-1.864386e-09
-4.7801408e-09
-6.8837273e-09
-8.5861848e-09
-8.1889423e-09
-3.4512977e-09
1.3288482e-09
4.0919258e-09
6.3719267e-09
7.5848067e-09
7.2528923e-09
5.380708e-09
2.1003428e-09
1.5075026e-09
1.0907058e-09
-1.1902438e-09
-3.6367998e-09
-5.5535688e-09
-6.431494e-09
-5.9037432e-09
-2.4180405e-09
1.2002227e-09
5.2312645e-09
5.4644878e-09
4.837484e-09
3.45208e-09
1.3558175e-09
3.134955e-10
3.2688762e-10
3.8342673e-10
-1.2367633e-09
-3.3965858e-09
-4.5755855e-09
-4.3689397e-09
-3.4605248e-09
-9.0239537e-10
2.0633385e-09
4.5134535e-09
4.1687352e-09
3.059935e-09
1.7000427e-09
-5.8382167e-11
-6.4579413e-10
-4.7103228e-10
-2.2199467e-10
-1.4086e-09
-3.2794735e-09
-4.1550477e-09
-2.959259e-09
-1.7753856e-09
-9.2428163e-11
2.3593007e-09
4.0065692e-09
3.2069798e-09
1.9095033e-09
8.7136e-10
-6.0258993e-10
-1.2099043e-05
2.100266e-06
-1.6868326e-05
4.3883163e-06
2.8047562e-05
5.9250217e-06
4.0130096e-06
1.5248844e-05
2.0651877e-05
-2.1264302e-05
-9.996954e-06
-2.3854899e-05
1.7547605e-06
2.368096e-05
-2.360171e-05
-2.6820756e-06
1.7220268e-06
1.7466443e-06
1.1612337e-06
3.0938125e-06
3.9511033e-06
5.6273081e-06
9.8201681e-06
8.2168962e-06
-3.3059043e-06
-7.2523828e-06
-5.6494371e-06
-4.1790914e-06
-5.5330287e-06
-7.8963236e-06
-1.1109711e-06
-1.3136399e-07
-8.0407033e-09
1.7860755e-06
2.8071078e-06
2.5523883e-06
3.0422025e-06
4.9529105e-06
4.5237422e-06
-1.7828193e-06
-4.8167991e-06
-7.5486106e-06
-3.5672745e-06
9.933844e-07
-2.25101e-06
-3.8261685e-07
-2.0828942e-08
3.6327585e-07
9.6442516e-07
1.2494323e-06
1.425073e-06
1.7124442e-06
2.1913541e-06
1.6653471e-06
-5.5354355e-07
-2.1328645e-06
-3.223833e-06
-2.0437004e-06
-5.6284918e-07
-9.1449767e-07
-1.8129136e-07
-2.7242408e-08
2.3739573e-07
5.1300323e-07
6.2826673e-07
7.3114554e-07
8.2883802e-07
9.2900079e-07
6.3887696e-07
-1.9891081e-07
-9.2985318e-07
-1.4246592e-06
-1.0422543e-06
-4.6037263e-07
-3.7515337e-07
-9.1988157e-08
-4.8290957e-09
1.2700629e-07
2.5306801e-07
3.1772926e-07
3.5721055e-07
3.8371082e-07
3.8530977e-07
2.488314e-07
-7.9779653e-08
-4.0112397e-07
-6.006833e-07
-4.9672837e-07
-2.8115473e-07
-1.7944339e-07
-4.6526272e-08
3.0185101e-09
6.3522865e-08
1.200995e-07
1.5505012e-07
1.7192349e-07
1.7688476e-07
1.5955853e-07
9.154885e-08
-3.6273607e-08
-1.7301528e-07
-2.5407045e-07
-2.3008004e-07
-1.5298848e-07
-9.6481738e-08
-2.4050675e-08
1.4186438e-09
2.9665147e-08
5.6176113e-08
7.4573687e-08
8.2104445e-08
8.0798642e-08
6.6854093e-08
3.3184812e-08
-1.889388e-08
-7.3625512e-08
-1.0790418e-07
-1.0473936e-07
-7.7291492e-08
-5.0509065e-08
-1.2299435e-08
-1.6825993e-10
1.4446519e-08
2.7317128e-08
3.5867333e-08
3.8904979e-08
3.606756e-08
2.6943492e-08
1.1378517e-08
-9.817471e-09
-3.3308283e-08
-4.7686328e-08
-4.7919014e-08
-3.7454928e-08
-2.4625835e-08
-5.714694e-09
7.6814437e-10
9.8745017e-09
1.5490935e-08
1.8574545e-08
1.839546e-08
1.4654463e-08
8.3921327e-09
2.356803e-09
-6.8140677e-09
-1.5526557e-08
-2.2329102e-08
-2.2241892e-08
-1.7804272e-08
-1.2812311e-08
-3.4747153e-09
2.1796949e-09
5.9984475e-09
9.376254e-09
1.0141931e-08
9.2949528e-09
6.2013027e-09
3.2098412e-09
-1.0548397e-09
-3.235514e-09
-8.0631215e-09
-9.2123657e-09
-1.0449299e-08
-9.6068217e-09
-6.361233e-09
-1.604887e-09
1.8875384e-09
4.2676578e-09
5.4651752e-09
5.0153032e-09
3.6031245e-09
1.2996542e-09
-4.6559983e-10
-2.106968e-09
-2.1110277e-09
-2.1889022e-09
-3.342881e-09
-5.141848e-09
-5.773263e-09
-4.9005103e-09
-2.6451896e-09
6.4676917e-10
2.6769618e-09
2.7785092e-09
1.4752005e-09
6.1190683e-10
-7.6050117e-10
-1.3311662e-09
-7.2662748e-10
7.805765e-10
-4.41741e-10
-1.1597635e-09
-2.6430707e-09
-3.6542128e-09
-3.2252202e-09
-2.8362359e-09
-9.8069083e-11
1.5747335e-09
1.1819577e-09
-4.9600033e-10
-1.3054453e-09
-1.5433067e-09
-1.5121428e-09
-1.2368906e-10
1.5875494e-09
1.1251833e-09
-2.9612267e-10
-1.745197e-09
-3.2054318e-09
-3.5264518e-09
-3.0440514e-09
-7.1769738e-10
7.5313678e-10
2.3247543e-10
-1.4998243e-09
-2.1266568e-09
-1.1555804e-09
-7.7819172e-10
5.7993096e-10
2.0119516e-09
1.6094248e-09
-4.39649e-10
-1.6784542e-09
-2.9866395e-09
-3.5168122e-09
-1.2256297e-06
-3.9502742e-05
1.036025e-05
6.3441384e-05
6.8274147e-07
1.5136733e-05
-5.6652642e-06
-6.1740143e-06
7.6977657e-06
1.2208702e-05
1.0553504e-05
1.6198988e-05
-1.7527833e-05
-3.221993e-05
-3.3119962e-05
-3.2451512e-06
-1.187106e-06
3.2846579e-06
5.9776592e-06
3.9799758e-06
4.6674157e-06
4.0476412e-06
4.0718324e-06
2.4501639e-06
1.3333997e-06
3.8139308e-07
-2.8822043e-07
-7.0430983e-06
-1.0352991e-05
-7.923695e-06
-8.8778014e-07
-3.0289895e-06
9.8784899e-07
5.8682312e-06
3.1814417e-06
3.4270282e-06
2.6217463e-06
2.7740585e-06
2.5960741e-06
2.3026133e-07
-2.1279458e-06
-3.6273859e-06
-4.7895377e-06
-4.1965108e-06
-3.2514849e-06
-4.9032249e-07
-4.6129954e-07
5.2061884e-07
1.7494511e-06
1.6875584e-06
1.8798924e-06
1.8754506e-06
1.7989907e-06
1.1717679e-06
-1.9792927e-07
-1.5019768e-06
-2.3909999e-06
-2.5123792e-06
-1.9628452e-06
-1.3784164e-06
-3.08828e-07
-1.9830053e-07
2.7655259e-07
8.0475415e-07
9.1312909e-07
1.0401527e-06
1.0812309e-06
9.7351898e-07
5.6472979e-07
-1.6336831e-07
-8.5717683e-07
-1.3171703e-06
-1.3296726e-06
-1.0298894e-06
-6.8022796e-07
-1.8696991e-07
-6.6649971e-08
1.5371114e-07
3.79671e-07
4.9033689e-07
5.6302397e-07
5.7846216e-07
5.0149247e-07
2.7230046e-07
-9.3175855e-08
-4.5141773e-07
-6.7887118e-07
-6.9366689e-07
-5.5400133e-07
-3.687191e-07
-1.0781717e-07
-2.0165354e-08
8.6992201e-08
1.9160763e-07
2.6330009e-07
3.0309599e-07
3.0594457e-07
2.5331068e-07
1.2815222e-07
-5.232071e-08
-2.3268039e-07
-3.4522228e-07
-3.6045748e-07
-2.9902347e-07
-2.0663199e-07
-6.0622118e-08
-8.0414506e-09
4.7973169e-08
1.0153562e-07
1.4180585e-07
1.6357186e-07
1.6042833e-07
1.2644998e-07
5.8817783e-08
-3.0885945e-08
-1.1899013e-07
-1.7550573e-07
-1.8727001e-07
-1.6079127e-07
-1.1466979e-07
-3.2870764e-08
-3.6999408e-09
2.7383342e-08
5.5901176e-08
7.7091022e-08
8.737007e-08
8.2567397e-08
6.1517451e-08
2.5707886e-08
-1.8335254e-08
-6.1475288e-08
-9.0257105e-08
-9.812176e-08
-8.6511387e-08
-6.3175707e-08
-1.6962086e-08
-1.12584e-11
1.8376208e-08
3.3151022e-08
4.2934708e-08
4.6614277e-08
4.0977417e-08
2.8034215e-08
9.9220997e-09
-1.2337669e-08
-3.0988918e-08
-4.6277674e-08
-5.1327381e-08
-4.6969816e-08
-3.6414394e-08
-1.2678064e-08
5.24965e-10
1.1849379e-08
2.0125574e-08
2.431945e-08
2.4256685e-08
2.0096982e-08
1.2921055e-08
3.6147311e-09
-5.4866463e-09
-1.8376733e-08
-2.4271132e-08
-2.6901258e-08
-2.5152396e-08
-1.8197732e-08
-7.4279486e-09
1.1268223e-09
7.8502656e-09
1.1664274e-08
1.2564383e-08
1.1574744e-08
8.1286047e-09
3.9782152e-09
1.8018943e-10
-2.6984573e-09
-8.5212862e-09
-1.2394055e-08
-1.511116e-08
-1.5472879e-08
-1.2263387e-08
-6.2098291e-09
1.2961597e-10
4.5283926e-09
5.9789322e-09
4.8799002e-09
3.5485782e-09
1.3369757e-09
-3.5474753e-10
-5.930495e-10
1.931156e-10
-2.9006693e-09
-5.9782957e-09
-8.7470858e-09
-1.0222072e-08
-8.9854922e-09
-6.1148969e-09
-1.2255036e-09
1.8303111e-09
2.0433062e-09
7.7572667e-12
-1.2059746e-09
-1.6217823e-09
-1.5429186e-09
-1.3746703e-10
1.8142348e-09
5.9210172e-10
-2.4371699e-09
-5.4096029e-09
-7.6904153e-09
-8.0334078e-09
-6.2285951e-09
-2.2048879e-09
1.330133e-10
-2.0532967e-10
-2.4226549e-09
-3.321777e-09
-2.1254193e-09
-1.0536238e-09
7.8748333e-10
2.6271693e-09
2.039697e-09
-1.1731968e-09
-4.1576388e-09
-6.6002328e-09
-7.5161852e-09
3.5800838e-05
1.33425e-05
-1.1809648e-05
-4.1227008e-06
2.7192062e-05
2.0972311e-06
-1.0070523e-07
8.6833767e-06
-7.1572563e-06
-3.25542e-06
9.4633942e-06
-4.7209217e-05
-6.977966e-05
1.1550162e-06
4.676257e-05
1.2911245e-06
1.8280221e-06
1.5297387e-06
2.2044032e-06
5.2603178e-06
3.1309009e-06
1.7979837e-06
2.9785493e-06
1.6193253e-06
5.6792213e-07
-4.3265314e-07
-3.6286439e-06
-7.876496e-06
-7.4988872e-06
-1.9750389e-06
3.0569219e-06
7.1719408e-07
-7.8127871e-07
1.1932379e-06
2.9052099e-06
2.8156496e-06
3.5299066e-06
3.1083149e-06
1.3620449e-06
-8.1029665e-07
-2.4715781e-06
-5.2715883e-06
-6.3964531e-06
-3.7605878e-06
9.753865e-07
3.585867e-07
1.3437619e-07
1.0418833e-07
8.7272104e-07
1.404953e-06
1.7542015e-06
2.0770512e-06
1.7946309e-06
9.1731347e-07
-3.8604972e-07
-1.5241969e-06
-2.3658662e-06
-2.6126919e-06
-1.982859e-06
-6.4123711e-07
-1.1202709e-07
-1.8209921e-08
1.4807006e-07
5.4401341e-07
8.1791922e-07
1.0477422e-06
1.1898652e-06
1.00346e-06
5.1635618e-07
-1.8668376e-07
-8.2272454e-07
-1.2307283e-06
-1.3451909e-06
-1.1647379e-06
-6.1976009e-07
-1.7197098e-07
-3.4762656e-08
1.1990643e-07
3.2862723e-07
4.8625076e-07
6.0846991e-07
6.5568097e-07
5.455444e-07
2.7912082e-07
-9.4953882e-08
-4.4553797e-07
-6.6889266e-07
-7.3332509e-07
-6.5271699e-07
-4.1584106e-07
-1.2577562e-07
-2.1920538e-08
8.374565e-08
1.9516194e-07
2.877334e-07
3.4999454e-07
3.6312484e-07
2.9614397e-07
1.4395571e-07
-5.6708495e-08
-2.4417286e-07
-3.6748172e-07
-4.0452966e-07
-3.6137942e-07
-2.5189485e-07
-7.6986565e-08
-1.2310652e-08
5.2694758e-08
1.1586524e-07
1.6814691e-07
2.0025589e-07
2.0115627e-07
1.5729602e-07
7.1886971e-08
-3.6107203e-08
-1.342321e-07
-2.0196714e-07
-2.2347163e-07
-2.0122644e-07
-1.465391e-07
-4.4367275e-08
-6.2102022e-09
3.2767202e-08
6.887562e-08
9.7319699e-08
1.1302862e-07
1.0860216e-07
8.1568455e-08
3.4932225e-08
-2.2269672e-08
-7.3939872e-08
-1.106019e-07
-1.2325207e-07
-1.123752e-07
-8.3904472e-08
-2.5369089e-08
-1.1254808e-09
2.272734e-08
4.2308217e-08
5.5649375e-08
6.3919999e-08
5.765805e-08
4.0729299e-08
1.6109785e-08
-1.2877187e-08
-4.1818756e-08
-6.0481082e-08
-6.7643521e-08
-6.3148075e-08
-4.8983139e-08
-1.679484e-08
-4.1415577e-11
1.5654794e-08
2.7277463e-08
3.4288152e-08
3.2424503e-08
2.768498e-08
1.7657878e-08
4.4887361e-09
-9.9058997e-09
-2.1620061e-08
-3.2231564e-08
-3.7117491e-08
-3.5497572e-08
-2.7423325e-08
-1.0434654e-08
8.2494547e-10
1.0274713e-08
1.6031286e-08
1.8431772e-08
1.6163359e-08
1.2215697e-08
6.3982014e-09
6.8656143e-10
-5.231271e-09
-1.0710253e-08
-1.7300781e-08
-2.134681e-08
-2.1845099e-08
-1.7693827e-08
-8.2000568e-09
-1.6468917e-10
5.8481827e-09
8.2324082e-09
7.7712117e-09
5.8649122e-09
3.2347519e-09
7.3277898e-10
-2.4009529e-10
-8.5212927e-10
-3.8670748e-09
-8.8303182e-09
-1.2704235e-08
-1.4570684e-08
-1.3169255e-08
-8.1327049e-09
-2.0067533e-09
2.0307435e-09
2.7354436e-09
1.0210188e-09
-4.6237993e-10
-8.5549397e-10
-8.243693e-10
5.6070233e-10
2.2478517e-09
1.170717e-10
-4.0667125e-09
-7.8792423e-09
-1.0567757e-08
-1.1043097e-08
-8.2830854e-09
-3.3817028e-09
-4.2290845e-10
-4.270664e-10
-2.3678646e-09
-3.3872223e-09
-1.8628457e-09
-4.0078935e-10
1.6926878e-09
3.7906679e-09
1.6363626e-09
-2.3129746e-09
-5.9692906e-09
-8.769453e-09
-9.9443629e-09
5.2537217e-05
-7.8754303e-06
-4.4840211e-05
2.4578398e-06
-4.9365068e-06
8.4099693e-06
3.8294769e-05
1.1102155e-05
2.6703093e-05
-3.9061196e-05
-7.5166109e-05
3.6700719e-05
7.3314148e-05
-6.8009866e-05
-7.6841403e-06
5.873128e-07
7.4494648e-07
-1.3053774e-06
-7.0683352e-07
1.2114579e-07
2.163607e-06
5.2256924e-06
4.3755253e-06
3.9424322e-06
1.8164887e-07
-2.8351774e-06
-3.441865e-08
-6.0287713e-07
-7.9208727e-06
-3.6658796e-06
2.7943709e-06
-2.240322e-07
-2.5708198e-06
-1.6605355e-07
-4.0485438e-07
2.3888196e-06
5.6901366e-06
3.8483923e-06
2.8656513e-06
-2.301531e-06
-5.2843485e-06
-1.979738e-07
8.1796564e-07
-5.8686819e-06
-1.7392259e-06
2.0632403e-07
-2.386404e-08
-3.8244573e-07
1.5138389e-07
3.7735776e-07
1.4814893e-06
2.4902535e-06
1.957102e-06
1.1680481e-06
-5.0731485e-07
-1.6500848e-06
-1.1689385e-06
-1.1780546e-06
-2.1437865e-06
-1.0811782e-06
-1.7246169e-07
-3.8850897e-08
2.0217712e-08
2.521737e-07
4.4592832e-07
9.0095074e-07
1.2575059e-06
1.0406239e-06
5.6527148e-07
-1.561114e-07
-7.2650139e-07
-8.818915e-07
-9.9212001e-07
-1.1153091e-06
-6.9130905e-07
-1.8267481e-07
-3.5506533e-08
7.8192316e-08
2.2797026e-07
3.6257275e-07
5.5539586e-07
6.7635684e-07
5.5836715e-07
2.8811624e-07
-7.8969873e-08
-3.8991761e-07
-5.6020271e-07
-6.3737743e-07
-6.2806378e-07
-4.284227e-07
-1.3013091e-07
-2.3060838e-08
6.9454794e-08
1.6395139e-07
2.5174087e-07
3.366532e-07
3.7101321e-07
3.0332802e-07
1.4603573e-07
-5.0819506e-08
-2.2672251e-07
-3.3677056e-07
-3.7990171e-07
-3.551528e-07
-2.5537405e-07
-8.1595819e-08
-1.3336869e-08
4.9537033e-08
1.093162e-07
1.6105303e-07
2.0133282e-07
2.0853458e-07
1.6293934e-07
7.3517641e-08
-3.3701625e-08
-1.3310036e-07
-1.9751622e-07
-2.2109197e-07
-2.03074e-07
-1.4937212e-07
-4.9006384e-08
-6.8448006e-09
3.3135426e-08
6.9966143e-08
9.9665102e-08
1.1776046e-07
1.1480105e-07
8.5947666e-08
3.6587271e-08
-2.146836e-08
-7.7095978e-08
-1.1332287e-07
-1.2657595e-07
-1.1640679e-07
-8.6352135e-08
-3.0585562e-08
-2.8309698e-09
2.2795752e-08
4.467085e-08
6.0975038e-08
6.6247962e-08
6.1345396e-08
4.3160195e-08
1.6312311e-08
-1.4281261e-08
-4.5149132e-08
-6.3943996e-08
-7.0963479e-08
-6.6034907e-08
-4.8296406e-08
-1.4228625e-08
9.158821e-10
1.6684338e-08
2.8244618e-08
3.4670942e-08
3.8236611e-08
3.2391872e-08
2.1010893e-08
5.7565672e-09
-1.1259423e-08
-2.4746686e-08
-3.5716785e-08
-4.0679056e-08
-3.873336e-08
-3.237153e-08
-9.4310584e-09
1.0081181e-09
1.0767485e-08
1.7030529e-08
1.9520565e-08
1.9706264e-08
1.5314475e-08
8.4426517e-09
1.1811089e-09
-6.3345231e-09
-1.3098023e-08
-1.9763849e-08
-2.3238079e-08
-2.2920417e-08
-1.9318407e-08
-6.9394413e-09
6.71316e-11
6.2783278e-09
9.1239649e-09
8.9887628e-09
8.7122e-09
5.6750382e-09
2.2100966e-09
-4.0137233e-11
-2.0616702e-09
-5.1452683e-09
-1.0396154e-08
-1.373533e-08
-1.497417e-08
-1.4115735e-08
-6.9740627e-09
-1.6291289e-09
2.6528483e-09
3.8246192e-09
2.7130891e-09
1.9812112e-09
1.117493e-09
2.278314e-10
4.457549e-10
7.6984515e-10
-7.4041373e-10
-5.0714612e-09
-8.3262856e-09
-1.0380077e-08
-1.1181743e-08
-6.8951286e-09
-2.6426156e-09
4.5311128e-10
8.3144655e-10
-4.839527e-10
-9.3428766e-10
-1.4337693e-10
3.6895113e-10
1.3004022e-09
1.9792424e-09
7.532778e-10
-3.1531484e-09
-6.2327605e-09
-8.4265512e-09
-9.8763905e-09
-4.0857897e-06
1.2863922e-05