/*--------------------------------*- C++ -*----------------------------------*\
| =========                 |                                                 |
| \\      /  F ield         | OpenFOAM: The Open Source CFD Toolbox           |
|  \\    /   O peration     | Version:  3.0.1                                 |
|   \\  /    A nd           | Web:      www.OpenFOAM.org                      |
|    \\/     M anipulation  |                                                 |
\*---------------------------------------------------------------------------*/
FoamFile
{
    version     2.0;
    format      ascii;
    class       volScalarField;
    location    "0.2";
    object      sigmaxx;
}
// * * * * * * * * * * * * * * * * * * * * * * * * * * * * * * * * * * * * * //

dimensions      [0 2 -2 0 0 0 0];

internalField   nonuniform List<scalar> 
3375
(
1.6447517e-05
-3.1086236e-05
0.00055119771
2.3583718e-05
-0.00051972282
8.5399732e-05
2.241062e-05
-9.7249773e-05
-0.00010095409
5.13505e-05
0.00010010371
0.0001524819
-8.7132738e-05
-0.00019318145
2.5818009e-05
-9.4108578e-07
-1.3815699e-05
-3.1268477e-05
7.3248384e-06
4.287501e-05
1.900446e-05
-1.1122841e-05
-4.4429938e-05
-4.5747783e-05
1.73754e-05
4.2712488e-05
-9.7726317e-08
-4.0284915e-06
1.6013815e-05
6.5699036e-06
-1.9530438e-06
-9.3361518e-06
-2.3270061e-05
2.5184129e-06
2.6672846e-05
6.6514746e-06
-1.220584e-05
-3.140687e-05
-3.086175e-05
9.7389484e-06
2.970993e-05
6.6948676e-06
6.9085113e-06
1.5557643e-05
4.9132914e-06
-6.054535e-07
-3.9868645e-06
-5.9909347e-06
5.8828977e-07
6.1024128e-06
6.3612027e-07
-7.9904888e-06
-1.5825932e-05
-1.3609056e-05
3.0553911e-06
1.3055679e-05
8.0973691e-06
6.3565168e-06
6.9706538e-06
3.2304777e-06
2.1913174e-07
-1.4104385e-06
-1.8843891e-06
-2.3071892e-07
8.9120788e-07
-1.2032536e-06
-4.807698e-06
-7.4663036e-06
-5.7914632e-06
6.7489749e-07
5.2471109e-06
4.9921237e-06
4.4511955e-06
4.0787746e-06
2.2897302e-06
5.0008923e-07
-3.8303595e-07
-7.2502656e-07
-4.4992991e-07
-4.1026218e-07
-1.3720402e-06
-2.8147919e-06
-3.624209e-06
-2.6384293e-06
1.9520544e-08
2.1915861e-06
2.7987582e-06
2.804815e-06
2.5005295e-06
1.6158399e-06
5.0470416e-07
-1.8705145e-08
-3.2057967e-07
-4.2486637e-07
-6.1252444e-07
-1.0943213e-06
-1.6670403e-06
-1.8703013e-06
-1.3075148e-06
-1.0921082e-07
9.9064827e-07
1.5473594e-06
1.7059843e-06
1.5649325e-06
1.1134014e-06
4.1515628e-07
8.7956675e-08
-1.5601643e-07
-3.3139804e-07
-5.2266126e-07
-7.7999751e-07
-1.008855e-06
-1.0240527e-06
-6.9730833e-07
-1.0449487e-07
4.8623831e-07
8.7160919e-07
1.0302625e-06
9.852773e-07
7.5225597e-07
3.1065691e-07
1.0288521e-07
-7.9804346e-08
-2.3678942e-07
-3.8590667e-07
-5.3046893e-07
-6.2356379e-07
-5.9182393e-07
-3.9674342e-07
-7.6910661e-08
2.5680165e-07
5.0526921e-07
6.2779043e-07
6.2407161e-07
5.0287577e-07
2.2329956e-07
8.8211631e-08
-4.3912315e-08
-1.6498464e-07
-2.6939938e-07
-3.5365038e-07
-3.9259074e-07
-3.5860351e-07
-2.3662594e-07
-5.3014006e-08
1.4432688e-07
3.0065232e-07
3.8832588e-07
3.984906e-07
3.3641366e-07
1.5495706e-07
6.5928869e-08
-2.790398e-08
-1.1324649e-07
-1.8538137e-07
-2.3467886e-07
-2.5149425e-07
-2.2200911e-07
-1.4643554e-07
-3.4885187e-08
8.5355726e-08
1.8415321e-07
2.438102e-07
2.5688651e-07
2.2391734e-07
1.0909008e-07
4.7908011e-08
-1.7975545e-08
-7.7132558e-08
-1.2658257e-07
-1.5738542e-07
-1.6520501e-07
-1.4189311e-07
-9.4019952e-08
-2.4274167e-08
5.0675286e-08
1.1612118e-07
1.5652575e-07
1.6961229e-07
1.5285986e-07
7.8499169e-08
3.5704997e-08
-1.1411695e-08
-5.3404853e-08
-8.8040562e-08
-1.0939672e-07
-1.1299498e-07
-9.594044e-08
-6.3910079e-08
-1.8419596e-08
3.1466403e-08
7.6237002e-08
1.0566286e-07
1.1662854e-07
1.0724234e-07
5.9663659e-08
2.740574e-08
-8.253532e-09
-4.0693411e-08
-6.6053903e-08
-8.1255109e-08
-8.2550671e-08
-7.0525376e-08
-4.6575344e-08
-1.5006082e-08
2.0920807e-08
5.3858587e-08
7.7687929e-08
8.6901186e-08
8.1020452e-08
5.0894418e-08
2.3587541e-08
-6.5344267e-09
-3.5190244e-08
-5.6113604e-08
-6.8393944e-08
-6.8639936e-08
-5.9661429e-08
-3.9078562e-08
-1.3354532e-08
1.6287764e-08
4.4066765e-08
6.5651573e-08
7.3863426e-08
6.8913923e-08
2.0851148e-05
-2.3490103e-05
-4.8153428e-05
9.2296606e-05
4.707306e-05
2.4065931e-05
0.00013684573
0.0010012917
0.0023629544
-0.001023235
-0.0023615101
-6.0231717e-05
-0.00017047044
-2.9524174e-05
3.2942047e-05
-5.6672855e-06
-1.1302272e-05
-9.8856379e-06
6.9063874e-06
2.7670225e-05
3.4793412e-05
8.4727485e-06
-8.6923578e-05
-0.00012034013
5.0524939e-05
0.00012606959
9.8969695e-06
-2.9254694e-05
-2.2048752e-06
1.5811097e-06
-3.6415807e-06
-7.5060079e-06
-6.4970409e-06
2.2629496e-06
1.3099472e-05
9.8712585e-06
-1.4035667e-05
-7.0239275e-05
-9.3165424e-05
3.7709758e-05
9.9308467e-05
2.2716399e-05
1.6579233e-06
5.8686027e-06
2.530606e-06
-9.2439378e-07
-3.3788521e-06
-2.9389545e-06
9.8450137e-07
3.872842e-06
3.2304623e-07
-9.9257842e-06
-2.4200162e-05
-2.3983213e-05
8.1134376e-06
2.5933765e-05
1.2640242e-05
5.6808751e-06
5.1437531e-06
2.6805631e-06
1.7762836e-07
-1.1877319e-06
-1.2261592e-06
-1.0998128e-07
4.1927212e-07
-1.5254661e-06
-5.6172573e-06
-9.4015451e-06
-7.6562017e-06
1.7434002e-06
7.9097761e-06
6.2376591e-06
4.3991244e-06
3.6767216e-06
2.1765054e-06
5.0856173e-07
-2.9580903e-07
-5.5099995e-07
-4.1842622e-07
-5.513055e-07
-1.5555527e-06
-3.1263053e-06
-4.1242475e-06
-2.9985292e-06
2.9644152e-07
2.8192361e-06
3.1488297e-06
2.8271767e-06
2.4231583e-06
1.592644e-06
5.2046926e-07
1.8378258e-08
-2.7042068e-07
-4.1850802e-07
-6.677927e-07
-1.1831911e-06
-1.7897836e-06
-2.0117467e-06
-1.3800954e-06
-2.0500875e-08
1.1640928e-06
1.658949e-06
1.7270152e-06
1.5510789e-06
1.1101862e-06
4.2314974e-07
1.0256802e-07
-1.4187295e-07
-3.3320894e-07
-5.5028455e-07
-8.2116489e-07
-1.0585545e-06
-1.0689521e-06
-7.112689e-07
-6.9491848e-08
5.4377934e-07
9.1351708e-07
1.0453126e-06
9.8483419e-07
7.5321097e-07
3.1434968e-07
1.0726896e-07
-7.7924474e-08
-2.4149781e-07
-4.004271e-07
-5.5028119e-07
-6.4463609e-07
-6.0781318e-07
-3.9820792e-07
-6.1479922e-08
2.7889397e-07
5.2251687e-07
6.3644813e-07
6.2536074e-07
5.0331305e-07
2.2477e-07
9.0155806e-08
-4.3180341e-08
-1.6640939e-07
-2.7629129e-07
-3.6319656e-07
-4.020408e-07
-3.6483149e-07
-2.3756594e-07
-4.6990295e-08
1.5147527e-07
3.0662639e-07
3.922061e-07
3.9983477e-07
3.373393e-07
1.5715231e-07
6.8109576e-08
-2.6477908e-08
-1.1384336e-07
-1.8804164e-07
-2.3898443e-07
-2.551988e-07
-2.2530632e-07
-1.472855e-07
-3.3725588e-08
8.7506017e-08
1.8622988e-07
2.4588937e-07
2.5824036e-07
2.2565668e-07
1.097482e-07
4.8329668e-08
-1.7766086e-08
-7.8270428e-08
-1.2819553e-07
-1.5942285e-07
-1.6610088e-07
-1.4299053e-07
-9.3263892e-08
-2.3161312e-08
5.1921127e-08
1.1718959e-07
1.5890488e-07
1.7140519e-07
1.535799e-07
7.8125407e-08
3.4727415e-08
-1.2467883e-08
-5.5016461e-08
-8.9481538e-08
-1.0986834e-07
-1.1260837e-07
-9.5676388e-08
-6.2958112e-08
-1.7394079e-08
3.2342356e-08
7.70519e-08
1.0747113e-07
1.1832331e-07
1.0759305e-07
5.903884e-08
2.6716683e-08
-8.8738794e-09
-4.1030508e-08
-6.6232351e-08
-8.1175318e-08
-8.2638184e-08
-7.0399916e-08
-4.6796088e-08
-1.48053e-08
2.1087436e-08
5.4367717e-08
7.8420322e-08
8.7832305e-08
8.0972558e-08
5.0174612e-08
2.3266398e-08
-6.8277748e-09
-3.4603714e-08
-5.5471486e-08
-6.8332372e-08
-6.9326999e-08
-5.9730029e-08
-3.9863749e-08
-1.3776592e-08
1.6247733e-08
4.4212366e-08
6.5475091e-08
7.3902281e-08
6.8592198e-08
-1.2987438e-05
0.00022292695
-2.9679836e-05
-0.00023586207
3.2853801e-05
2.1956707e-05
9.1602612e-06
-6.7642825e-05
-1.3040162e-05
4.6304217e-05
6.0350873e-05
0.00018765253
0.00013733651
-0.00018684995
-0.00017202093
-8.0013833e-06
-2.2607822e-05
-8.2399534e-06
1.5516184e-05
1.9226717e-05
1.2918157e-05
-4.5796184e-06
-4.1922591e-05
-4.5096555e-05
2.2740804e-05
4.9761441e-05
-5.6740423e-06
-1.7787465e-05
1.6905002e-05
1.6288035e-05
-2.7598224e-06
-1.353926e-05
-3.5974897e-06
1.0234502e-05
8.423056e-06
2.9004004e-06
-1.0597005e-05
-3.1057934e-05
-3.1852747e-05
1.2296984e-05
3.2832607e-05
1.8441557e-06
-4.1012421e-06
1.5428253e-05
1.3263451e-05
-3.8484556e-07
-3.6967937e-06
-1.6273356e-06
2.1528579e-06
2.2500413e-06
-1.0791777e-06
-8.0625774e-06
-1.5606333e-05
-1.32934e-05
4.0033124e-06
1.3680819e-05
6.5581398e-06
3.6828351e-06
6.5965392e-06
4.8501613e-06
4.5496357e-07
-9.8327329e-07
-7.6774908e-07
1.2565134e-07
-5.9998392e-08
-1.8518541e-06
-4.9316439e-06
-7.3487013e-06
-5.527142e-06
1.0647095e-06
5.4091163e-06
4.4077549e-06
3.5297726e-06
3.8291741e-06
2.6918318e-06
6.2399606e-07
-1.6202681e-07
-3.8280263e-07
-3.5916038e-07
-6.7310431e-07
-1.6077916e-06
-2.8786615e-06
-3.567024e-06
-2.4886393e-06
1.8314905e-07
2.2362935e-06
2.5803692e-06
2.4738462e-06
2.3590755e-06
1.6932347e-06
5.6026443e-07
7.9260675e-08
-2.0518031e-07
-3.9338262e-07
-6.9052153e-07
-1.1788334e-06
-1.6934988e-06
-1.8369986e-06
-1.2326355e-06
-3.5719394e-08
1.0033589e-06
1.4642071e-06
1.576745e-06
1.4867051e-06
1.1144708e-06
4.3370445e-07
1.2706336e-07
-1.1538271e-07
-3.1943243e-07
-5.4849646e-07
-8.0851795e-07
-1.0166821e-06
-1.0063346e-06
-6.6138788e-07
-6.9864725e-08
4.9184488e-07
8.3877907e-07
9.7802829e-07
9.447592e-07
7.4367244e-07
3.1620054e-07
1.1688759e-07
-6.5991075e-08
-2.3314147e-07
-3.9446362e-07
-5.3998963e-07
-6.2471987e-07
-5.826029e-07
-3.7897342e-07
-6.1752492e-08
2.6002519e-07
4.9082072e-07
6.0523693e-07
6.0353194e-07
4.9586875e-07
2.232952e-07
9.2783506e-08
-3.8271159e-08
-1.6165774e-07
-2.714447e-07
-3.547323e-07
-3.9061389e-07
-3.5200558e-07
-2.2800947e-07
-4.6288712e-08
1.4189766e-07
2.9135104e-07
3.7638274e-07
3.8779805e-07
3.3155498e-07
1.5645431e-07
7.0096527e-08
-2.2997462e-08
-1.094004e-07
-1.8284229e-07
-2.3417919e-07
-2.4912933e-07
-2.1925802e-07
-1.4443655e-07
-3.4724972e-08
8.3396679e-08
1.7931802e-07
2.3757627e-07
2.5140027e-07
2.2102905e-07
1.0831046e-07
4.8372177e-08
-1.6664681e-08
-7.6400137e-08
-1.2489055e-07
-1.5653897e-07
-1.623676e-07
-1.3989719e-07
-9.1631824e-08
-2.4273023e-08
4.9844523e-08
1.1340203e-07
1.5481335e-07
1.6778696e-07
1.5078386e-07
7.7214249e-08
3.4226592e-08
-1.2554652e-08
-5.4555891e-08
-8.7439183e-08
-1.0791234e-07
-1.1044766e-07
-9.4223666e-08
-6.230851e-08
-1.8893933e-08
3.0855282e-08
7.4640564e-08
1.051345e-07
1.1621588e-07
1.0582182e-07
5.8671706e-08
2.6255847e-08
-9.361448e-09
-4.0915845e-08
-6.485687e-08
-7.9147106e-08
-8.1266515e-08
-6.9579683e-08
-4.6714651e-08
-1.6042708e-08
1.9172384e-08
5.2538227e-08
7.6819732e-08
8.6469653e-08
7.9826061e-08
5.0081476e-08
2.2837046e-08
-7.5494061e-09
-3.4580219e-08
-5.4517479e-08
-6.5999956e-08
-6.8150693e-08
-5.8858e-08
-3.9818804e-08
-1.4534377e-08
1.4220239e-08
4.2702584e-08
6.4136411e-08
7.2838995e-08
6.7657881e-08
-1.4388986e-05
-3.0707801e-05
-6.753952e-06
6.5076885e-06
0.00010830347
3.9082524e-05
-9.5979823e-05
-3.3259595e-05
-6.1731786e-05
5.9626552e-06
6.5051361e-05
0.00011902361
2.5059211e-05
-0.0001208327
-7.4121197e-06
-5.809077e-06
-1.0973772e-05
-3.0980583e-06
6.2099939e-06
4.7803852e-06
2.1054258e-06
-7.9869096e-06
-3.2154662e-05
-3.052129e-05
1.7354712e-05
3.4255174e-05
1.3256565e-06
-1.9440776e-06
1.6496773e-05
9.4802215e-06
-1.4136808e-06
-5.5748044e-06
-1.7022283e-06
3.1382371e-06
6.8020575e-08
-1.6442415e-06
-6.5705453e-06
-1.8325532e-05
-1.4584867e-05
7.3382193e-06
1.5374601e-05
1.0454222e-06
1.514088e-06
1.338326e-05
7.8044673e-06
2.2523994e-07
-2.0011098e-06
-9.4646173e-07
7.8681028e-07
5.9414317e-08
-2.067501e-06
-5.8588425e-06
-9.600944e-06
-6.9444157e-06
2.0194097e-06
6.7484303e-06
3.6147995e-06
3.540669e-06
6.1835349e-06
4.2053753e-06
7.0517983e-07
-5.0993428e-07
-4.9646462e-07
-1.3121138e-07
-6.2718918e-07
-1.9454423e-06
-3.8238382e-06
-5.0607607e-06
-3.4469916e-06
5.0847162e-07
3.046861e-06
2.829329e-06
2.965996e-06
3.5221478e-06
2.5582292e-06
7.1486017e-07
5.5812755e-09
-2.6274625e-07
-3.8027291e-07
-7.7451443e-07
-1.5180123e-06
-2.3766542e-06
-2.7129252e-06
-1.8062374e-06
1.4961588e-08
1.4262962e-06
1.8552572e-06
2.0719896e-06
2.1598191e-06
1.6382478e-06
5.885458e-07
1.4395686e-07
-1.4630461e-07
-3.6982845e-07
-6.7754031e-07
-1.0888142e-06
-1.4628777e-06
-1.5113841e-06
-9.9844451e-07
-9.027319e-08
7.0931281e-07
1.1446423e-06
1.3496686e-06
1.3594128e-06
1.0720401e-06
4.3945285e-07
1.5405039e-07
-8.3862487e-08
-2.9362818e-07
-5.1785357e-07
-7.4635245e-07
-9.0720814e-07
-8.7561286e-07
-5.7583244e-07
-9.0381591e-08
3.7616573e-07
6.9537388e-07
8.5892366e-07
8.6857145e-07
7.114345e-07
3.1519666e-07
1.2856627e-07
-4.8482737e-08
-2.1369796e-07
-3.6923048e-07
-5.01317e-07
-5.7090371e-07
-5.2656065e-07
-3.4512466e-07
-7.0720718e-08
2.1104443e-07
4.2414415e-07
5.4394693e-07
5.6020991e-07
4.7372765e-07
2.206442e-07
9.674892e-08
-2.8973834e-08
-1.4906005e-07
-2.5420207e-07
-3.326031e-07
-3.6328927e-07
-3.2607415e-07
-2.1272525e-07
-5.0594078e-08
1.2173589e-07
2.6043103e-07
3.4562152e-07
3.6402484e-07
3.1626911e-07
1.5176778e-07
7.0125465e-08
-1.9940254e-08
-1.025933e-07
-1.7291248e-07
-2.2032092e-07
-2.3381388e-07
-2.0417469e-07
-1.3569854e-07
-3.4468508e-08
7.2025872e-08
1.6429196e-07
2.2142608e-07
2.380436e-07
2.1312164e-07
1.0523188e-07
4.831151e-08
-1.4765388e-08
-7.2170299e-08
-1.1875975e-07
-1.4842931e-07
-1.5457442e-07
-1.3325952e-07
-8.8473661e-08
-2.511528e-08
4.2476009e-08
1.045703e-07
1.4565624e-07
1.600066e-07
1.4612822e-07
7.5529973e-08
3.4010747e-08
-1.1693595e-08
-5.2282121e-08
-8.3661131e-08
-1.0344705e-07
-1.0664105e-07
-9.1590837e-08
-6.1692275e-08
-2.081424e-08
2.6388741e-08
6.9295717e-08
9.9578131e-08
1.1142123e-07
1.0288064e-07
5.7232964e-08
2.5236874e-08
-9.9237154e-09
-4.0357754e-08
-6.2749157e-08
-7.6621075e-08
-7.8986068e-08
-6.7952515e-08
-4.6386355e-08
-1.7593471e-08
1.6699989e-08
4.9488809e-08
7.3557309e-08
8.3610829e-08
7.806154e-08
4.8617564e-08
2.1055121e-08
-9.1470063e-09
-3.4940007e-08
-5.299252e-08
-6.4054491e-08
-6.6214183e-08
-5.7179525e-08
-3.9184354e-08
-1.5747747e-08
1.2853627e-08
4.1027621e-08
6.207549e-08
7.08791e-08
6.6380628e-08
-1.921097e-05
2.6104452e-05
-1.0316267e-05
-1.023867e-05
1.6196041e-06
-5.4433734e-06
0.00011869633
-3.6909545e-05
-0.00016022477
3.5520267e-05
3.0687641e-05
0.00025039276
-8.8541878e-06
-0.00022640481
1.5589677e-05
-5.130223e-06
-1.0423487e-05
-3.0314106e-06
6.3200751e-06
5.5102292e-06
-2.2651878e-06
-1.5389717e-05
-1.5542293e-05
-4.3338487e-06
1.0384365e-05
8.2993696e-06
-1.3794266e-05
2.2590898e-06
2.6048239e-05
1.1451093e-05
-6.7333098e-07
-5.3359584e-06
-1.6766313e-06
2.8991594e-06
1.9711869e-06
-2.6215451e-06
-1.1624661e-05
-9.2254885e-06
-6.9166765e-07
3.5093602e-06
2.7768237e-06
-1.0245846e-05
3.0687551e-06
1.942018e-05
8.1141287e-06
7.2705685e-07
-1.4220952e-06
-7.9350001e-07
4.411505e-07
-7.5373233e-08
-2.1987488e-06
-5.2592487e-06
-5.5805549e-06
-2.7214051e-06
7.2642264e-07
1.9683208e-06
-2.2707422e-07
2.9467839e-06
6.9549507e-06
4.2427479e-06
9.0870141e-07
-2.6270825e-07
-3.801561e-07
-2.130479e-07
-6.6970685e-07
-1.767625e-06
-3.1082239e-06
-3.2932692e-06
-1.9000365e-06
1.7288782e-08
1.197984e-06
1.1474076e-06
2.3109557e-06
3.4637301e-06
2.503355e-06
7.8162071e-07
1.1684735e-07
-1.8978428e-07
-3.595344e-07
-7.2972832e-07
-1.3170238e-06
-1.9015438e-06
-1.9507653e-06
-1.2364172e-06
-1.5993035e-07
7.0077346e-07
1.1172876e-06
1.6348088e-06
1.961107e-06
1.5624497e-06
6.0048646e-07
1.9296759e-07
-9.7742075e-08
-3.2914638e-07
-6.115227e-07
-9.4060264e-07
-1.19909e-06
-1.1788866e-06
-7.8202884e-07
-1.5944597e-07
4.1185775e-07
8.0551645e-07
1.0973562e-06
1.2090421e-06
1.0079396e-06
4.3584489e-07
1.7522003e-07
-5.3561619e-08
-2.5677216e-07
-4.6136428e-07
-6.5235139e-07
-7.6959289e-07
-7.2716914e-07
-4.8889113e-07
-1.2072717e-07
2.4632194e-07
5.3329358e-07
7.1975515e-07
7.7444302e-07
6.6511977e-07
3.0748769e-07
1.3680424e-07
-3.0460629e-08
-1.8722236e-07
-3.3054859e-07
-4.4559359e-07
-4.995503e-07
-4.5717343e-07
-3.0744518e-07
-8.4614641e-08
1.5166057e-07
3.4499753e-07
4.689526e-07
5.0496149e-07
4.4235112e-07
2.1365933e-07
9.9223668e-08
-1.8037252e-08
-1.3192363e-07
-2.301605e-07
-3.0098409e-07
-3.2609072e-07
-2.9250465e-07
-1.9417454e-07
-5.6329245e-08
9.3987508e-08
2.2083832e-07
3.0655368e-07
3.3401912e-07
2.9778736e-07
1.4788004e-07
7.1793467e-08
-1.4742638e-08
-9.2357719e-08
-1.5814707e-07
-2.0220492e-07
-2.1391486e-07
-1.8639453e-07
-1.2750904e-07
-3.8689856e-08
5.9306678e-08
1.4535452e-07
2.0083785e-07
2.1969199e-07
2.0143919e-07
1.0274264e-07
4.9410116e-08
-1.1612694e-08
-6.569984e-08
-1.0986409e-07
-1.3787453e-07
-1.4379212e-07
-1.2408753e-07
-8.5545339e-08
-2.8657524e-08
3.4018147e-08
9.3617139e-08
1.3369267e-07
1.4954618e-07
1.3985441e-07
7.4500008e-08
3.4576248e-08
-1.0263347e-08
-4.8867814e-08
-7.8717391e-08
-9.7685985e-08
-1.0113012e-07
-8.7169796e-08
-6.1129591e-08
-2.407347e-08
2.0998077e-08
6.2990759e-08
9.2566132e-08
1.0526074e-07
9.9083199e-08
5.6013624e-08
2.4297799e-08
-1.0552912e-08
-3.9638541e-08
-6.0500131e-08
-7.3464497e-08
-7.5750613e-08
-6.514878e-08
-4.5566035e-08
-1.9352641e-08
1.3623595e-08
4.5912383e-08
6.9578524e-08
7.9998075e-08
7.5601755e-08
4.7095828e-08
1.9152284e-08
-1.093334e-08
-3.5530022e-08
-5.1805214e-08
-6.1875374e-08
-6.3640007e-08
-5.4768837e-08
-3.7702874e-08
-1.6516945e-08
1.0925994e-08
3.8568148e-08
5.9383134e-08
6.8233085e-08
6.4363667e-08
7.0356019e-06
-1.1766192e-06
4.154233e-05
-8.394873e-06
-4.5064017e-05
-3.7980303e-06
-6.2598469e-06
-7.9831593e-06
-1.9029676e-05
3.7318167e-05
4.5458268e-06
5.7426072e-05
1.4415971e-06
-7.4655314e-05
1.8069842e-05
1.3057622e-07
-5.4850119e-06
-4.688299e-06
2.0052993e-06
2.176225e-06
-2.6811538e-06
-6.6871544e-06
-6.8545017e-06
-2.037072e-06
2.8801213e-06
7.3365492e-07
-7.5967181e-06
2.3816888e-06
1.6599606e-05
9.9978526e-06
1.0865083e-06
-2.8572703e-06
-2.9034204e-06
1.1929399e-06
1.3046514e-06
-2.0269959e-06
-4.839085e-06
-4.7388324e-06
-1.4243872e-06
-5.4546167e-09
-3.983474e-07
-4.8094516e-06
2.3914683e-06
1.1734097e-05
6.5950042e-06
1.2943775e-06
-7.6488366e-07
-9.3539927e-07
4.1266088e-08
-2.7854063e-07
-1.6840051e-06
-3.1129801e-06
-3.1968161e-06
-1.7386042e-06
-3.8480045e-07
9.8303537e-08
-4.6331067e-07
2.1688021e-06
5.1197399e-06
3.7672311e-06
1.0822024e-06
-3.1243394e-08
-3.5415127e-07
-2.8183209e-07
-6.4665017e-07
-1.3704245e-06
-2.0744771e-06
-2.1042023e-06
-1.3531892e-06
-4.1627898e-07
2.2954572e-07
5.4016299e-07
1.7090926e-06
2.7558433e-06
2.2784777e-06
8.1929378e-07
1.9719553e-07
-1.4331088e-07
-3.3417966e-07
-6.4285718e-07
-1.0503079e-06
-1.3904817e-06
-1.3831663e-06
-9.457775e-07
-3.3024291e-07
2.2618181e-07
6.6739825e-07
1.2432167e-06
1.6364929e-06
1.4265434e-06
5.98918e-07
2.2503467e-07
-6.146976e-08
-2.8588258e-07
-5.2730115e-07
-7.7226473e-07
-9.3826844e-07
-9.0789416e-07
-6.3871966e-07
-2.3001435e-07
1.8385168e-07
5.4492108e-07
8.6667718e-07
1.0341268e-06
9.2207792e-07
4.2406405e-07
1.8845502e-07
-2.8476758e-08
-2.1968064e-07
-3.9861593e-07
-5.5033453e-07
-6.3327025e-07
-5.9568264e-07
-4.2027561e-07
-1.5209787e-07
1.366496e-07
3.9398144e-07
5.906415e-07
6.7579115e-07
6.1037286e-07
2.944069e-07
1.4171463e-07
-1.5772363e-08
-1.6087269e-07
-2.890228e-07
-3.8517462e-07
-4.266981e-07
-3.9090797e-07
-2.7343862e-07
-9.6616582e-08
9.5800087e-08
2.7162127e-07
3.9773664e-07
4.4787679e-07
4.0959866e-07
2.0463547e-07
1.0265753e-07
-1.0955499e-08
-1.1482728e-07
-2.0407071e-07
-2.6562899e-07
-2.8645177e-07
-2.5623405e-07
-1.7938663e-07
-6.2309686e-08
6.6012598e-08
1.8469597e-07
2.6657619e-07
2.9853468e-07
2.7698648e-07
1.4290875e-07
7.106121e-08
-5.5776005e-09
-8.087111e-08
-1.4239866e-07
-1.8304579e-07
-1.9427263e-07
-1.7314466e-07
-1.1776803e-07
-4.3319435e-08
4.2696565e-08
1.2052035e-07
1.7921156e-07
2.0414363e-07
1.8982945e-07
1.0095936e-07
4.9770867e-08
-5.8796382e-09
-5.8354833e-08
-9.9882167e-08
-1.2674923e-07
-1.3273616e-07
-1.1737478e-07
-8.1017553e-08
-3.2326913e-08
2.6794379e-08
8.070689e-08
1.2189019e-07
1.4047504e-07
1.3249797e-07
7.1844524e-08
3.4111369e-08
-7.3453937e-09
-4.463589e-08
-7.2969079e-08
-9.0382563e-08
-9.3887502e-08
-8.2090917e-08
-5.756295e-08
-2.4267781e-08
1.5165786e-08
5.5330708e-08
8.5691974e-08
1.0060304e-07
9.6736582e-08
5.4558018e-08
2.4023556e-08
-8.9229909e-09
-3.6930162e-08
-5.6772426e-08
-6.8822518e-08
-7.1098516e-08
-6.152617e-08
-4.4012134e-08
-1.9842279e-08
1.0102235e-08
4.1463409e-08
6.4605182e-08
7.6587343e-08
7.405661e-08
4.6024727e-08
1.8870255e-08
-9.9772525e-09
-3.3509024e-08
-4.8999764e-08
-5.8427029e-08
-6.0204799e-08
-5.1618661e-08
-3.7218911e-08
-1.7420302e-08
8.0916997e-09
3.5373192e-08
5.4884223e-08
6.5133643e-08
6.3000261e-08
-1.3753016e-05
8.4701994e-05
-8.8312052e-06
-0.00012382118
6.6851035e-06
-2.5085364e-05
2.1510932e-05
1.6690283e-05
-2.4874207e-05
-1.388367e-05
-2.6508298e-06
-8.3896172e-06
1.6028277e-05
2.7478046e-05
4.7857291e-05
3.6374973e-06
-7.9493261e-06
-4.5701287e-06
4.3677026e-06
1.1425928e-07
-2.7948929e-06
-4.2120455e-06
-3.1083452e-06
7.4474232e-07
1.0698413e-07
-3.0772174e-06
-5.1152695e-06
2.2414738e-06
1.0003711e-05
9.4651057e-06
2.9301238e-06
-5.090575e-06
-2.2244782e-06
4.1136724e-06
2.1269553e-07
-1.3111479e-06
-2.9724918e-06
-2.5526037e-06
-2.4657598e-07
-5.9309242e-07
-2.0321534e-06
-2.9134184e-06
1.0626869e-06
6.0542924e-06
5.8441835e-06
1.8833986e-06
-7.5112129e-07
-8.6073644e-07
3.1621283e-07
-4.6031511e-07
-1.1684279e-06
-1.7773535e-06
-1.7850425e-06
-1.148422e-06
-9.1499999e-07
-9.05553e-07
-6.2792695e-07
1.381955e-06
3.5197649e-06
3.5254991e-06
1.2502132e-06
1.8408775e-08
-3.3406037e-07
-2.1455913e-07
-5.9840161e-07
-9.962708e-07
-1.3129382e-06
-1.3469593e-06
-1.0505465e-06
-7.0148842e-07
-3.368238e-07
1.8418583e-07
1.2218748e-06
2.1279827e-06
2.1080503e-06
8.5812305e-07
2.3494342e-07
-1.1983741e-07
-2.9888849e-07
-5.5726802e-07
-8.0827273e-07
-9.8471741e-07
-9.9454394e-07
-7.8792355e-07
-4.6354062e-07
-7.4824294e-08
3.8401864e-07
9.4703438e-07
1.350264e-06
1.3102311e-06
5.9384826e-07
2.4373175e-07
-3.9836934e-08
-2.5194819e-07
-4.5286282e-07
-6.2379658e-07
-7.2522864e-07
-7.0965144e-07
-5.5235075e-07
-2.9039606e-07
2.5793763e-08
3.668626e-07
6.9148936e-07
8.8609642e-07
8.4692552e-07
4.0989977e-07
1.944192e-07
-1.2263365e-08
-1.9064694e-07
-3.4505356e-07
-4.6211514e-07
-5.2053588e-07
-4.9471456e-07
-3.743018e-07
-1.7969037e-07
5.4231257e-08
2.9128333e-07
4.8912933e-07
5.9270778e-07
5.6177452e-07
2.8275815e-07
1.4331423e-07
-3.7095335e-09
-1.3872199e-07
-2.5276317e-07
-3.3347734e-07
-3.6633858e-07
-3.3949872e-07
-2.5018183e-07
-1.1140389e-07
5.2537947e-08
2.1386615e-07
3.3990254e-07
4.0041283e-07
3.7953307e-07
1.9605054e-07
1.0291765e-07
-2.0025472e-09
-9.9812761e-08
-1.8118917e-07
-2.3591935e-07
-2.5405784e-07
-2.3057084e-07
-1.6756831e-07
-7.0841543e-08
4.097545e-08
1.5100688e-07
2.3376802e-07
2.7253919e-07
2.5999647e-07
1.3888565e-07
7.2464933e-08
-1.1143899e-09
-7.1447707e-08
-1.2856572e-07
-1.6527046e-07
-1.7570342e-07
-1.5795519e-07
-1.1286752e-07
-4.8077561e-08
3.0261837e-08
1.0387818e-07
1.6045989e-07
1.8778316e-07
1.7880835e-07
9.7930512e-08
5.0433771e-08
-2.7193474e-09
-5.2466439e-08
-9.1727642e-08
-1.1636386e-07
-1.2191163e-07
-1.0825322e-07
-7.748214e-08
-3.4018466e-08
2.0238235e-08
7.183006e-08
1.1179005e-07
1.316199e-07
1.261167e-07
7.0705029e-08
3.4963333e-08
-4.7026856e-09
-4.045449e-08
-6.737294e-08
-8.3877312e-08
-8.704961e-08
-7.65376e-08
-5.5244459e-08
-2.530042e-08
1.2411451e-08
5.0527331e-08
8.0021511e-08
9.5246708e-08
9.2468881e-08
5.4319733e-08
2.5330614e-08
-6.1685339e-09
-3.3206884e-08
-5.2325191e-08
-6.3984675e-08
-6.6264434e-08
-5.8093182e-08
-4.2551012e-08
-2.0907274e-08
7.4833653e-09
3.7472578e-08
6.0592477e-08
7.3015913e-08
7.1605808e-08
4.642359e-08
2.0780475e-08
-6.7827037e-09
-2.9582201e-08
-4.4908902e-08
-5.4306829e-08
-5.6514696e-08
-4.9711994e-08
-3.6938837e-08
-1.9193963e-08
4.7111179e-09
3.0945825e-08
5.1030794e-08
6.2115869e-08
6.1463732e-08
-7.5266109e-05
-2.6286818e-05
2.9977297e-05
1.1820993e-05
-2.909502e-05
-1.1380982e-06
-1.7641712e-05
-1.5573753e-05
1.4566723e-05
1.3706838e-05
-8.0599159e-06
0.00010149446
0.00012560526
-2.48011e-05
-0.00010009372
8.4636937e-06
-2.3863878e-06
-7.1908902e-06
-2.9150784e-06
-2.4806893e-06
-8.8679005e-07
2.4648684e-06
9.694581e-07
-9.7041427e-07
-3.0359208e-06
-4.0966728e-06
-4.7561327e-06
-6.8923017e-07
6.1610315e-06
1.084503e-05
7.3790613e-06
-2.4390744e-07
-4.1858891e-06
-1.7590561e-06
-1.0731275e-06
-4.2226225e-07
1.4405838e-06
2.8442139e-07
-1.4323208e-06
-3.2516987e-06
-3.7605484e-06
-4.1891798e-06
-1.2622735e-06
4.2391013e-06
8.5127988e-06
3.0006975e-06
2.4506826e-07
-1.2502537e-06
-8.9833557e-07
-9.4055215e-07
-6.6014578e-07
-2.3523026e-07
-6.7941398e-07
-1.24221e-06
-1.8449918e-06
-1.8076892e-06
-9.2656825e-07
8.9545098e-07
2.8477588e-06
3.8497491e-06
1.5710857e-06
3.5560281e-07
-4.2676971e-07
-5.5215758e-07
-7.0402847e-07
-7.1448038e-07
-6.6574434e-07
-8.3981013e-07
-1.0004811e-06
-1.0471173e-06
-7.4945463e-07
-1.7906973e-08
9.897344e-07
1.7898378e-06
2.0863839e-06
9.2767872e-07
3.325784e-07
-1.3293982e-07
-3.7133743e-07
-5.4917046e-07
-6.3958323e-07
-6.8465561e-07
-7.4829423e-07
-7.3537428e-07
-5.9841269e-07
-2.7603451e-07
2.3191315e-07
7.9828934e-07
1.184429e-06
1.2560337e-06
5.9834618e-07
2.6727845e-07
-3.472476e-08
-2.5325519e-07
-4.1750045e-07
-5.2248122e-07
-5.7653527e-07
-5.8347852e-07
-5.1436189e-07
-3.467993e-07
-7.8222923e-08
2.6502675e-07
5.9562067e-07
7.9872793e-07
8.0403795e-07
4.0203452e-07
2.0007212e-07
-4.4001695e-09
-1.7705876e-07
-3.1244972e-07
-4.0091209e-07
-4.41912e-07
-4.302092e-07
-3.5181909e-07
-2.0496744e-07
-1.9704523e-09
2.2828515e-07
4.2969794e-07
5.4250255e-07
5.320836e-07
2.7578215e-07
1.4475442e-07
3.4503968e-09
-1.2506662e-07
-2.2873359e-07
-2.9734561e-07
-3.2495093e-07
-3.0654179e-07
-2.3860371e-07
-1.2461177e-07
2.165415e-08
1.7669303e-07
3.04017e-07
3.7098863e-07
3.6033923e-07
1.9153473e-07
1.029586e-07
3.5344966e-09
-8.9309101e-08
-1.6463737e-07
-2.1532162e-07
-2.321016e-07
-2.1383748e-07
-1.6172229e-07
-7.8957074e-08
2.4934619e-08
1.2954318e-07
2.1268017e-07
2.5576579e-07
2.4845296e-07
1.3546672e-07
7.3061546e-08
1.6575901e-09
-6.5331962e-08
-1.1914363e-07
-1.5208662e-07
-1.6224538e-07
-1.472814e-07
-1.0861912e-07
-5.0394929e-08
1.9960262e-08
9.1982577e-08
1.4855016e-07
1.7751169e-07
1.7263477e-07
9.5753722e-08
5.0425002e-08
-9.3873502e-10
-4.8474366e-08
-8.5948668e-08
-1.0865715e-07
-1.1411988e-07
-1.018192e-07
-7.4741021e-08
-3.4658319e-08
1.4568009e-08
6.5114656e-08
1.0478413e-07
1.2577925e-07
1.2262151e-07
7.0025172e-08
3.5153216e-08
-3.350906e-09
-3.7591991e-08
-6.3480079e-08
-7.8931756e-08
-8.2211229e-08
-7.2678152e-08
-5.3731663e-08
-2.612024e-08
9.4262024e-09
4.659308e-08
7.5816081e-08
9.1644912e-08
9.0115702e-08
5.4343226e-08
2.5981289e-08
-4.7218061e-09
-3.0724609e-08
-4.9353745e-08
-6.0686166e-08
-6.3156701e-08
-5.5992094e-08
-4.2225965e-08
-2.2356602e-08
5.1344786e-09
3.4373988e-08
5.7569601e-08
7.074282e-08
7.0498785e-08
4.7018361e-08
2.1855949e-08
-5.1755763e-09
-2.7296533e-08
-4.2465481e-08
-5.1791307e-08
-5.4312474e-08
-4.8609951e-08
-3.7354536e-08
-2.1143577e-08
2.4893482e-09
2.8101971e-08
4.8497388e-08
6.046384e-08
6.1022665e-08
-0.00010820948
2.7596173e-05
9.0592761e-05
-1.9006598e-05
1.017101e-05
-1.7346893e-05
-7.0417446e-05
-1.0078076e-05
-4.6988832e-05
8.001755e-05
0.00015032965
-7.1223607e-05
-0.0001449061
0.00012233481
6.877809e-06
9.4662848e-06
-1.4582662e-06
-6.5248515e-06
-2.534799e-06
-4.0601359e-06
3.3986796e-07
5.4508929e-06
2.380785e-06
-9.7188965e-07
-8.8229397e-06
-1.036475e-05
2.6990373e-06
7.929435e-06
9.7722383e-07
5.1725421e-06
7.3103907e-06
-5.1865147e-07
-4.8103781e-06
-2.1284219e-06
-3.1852187e-06
3.8236641e-07
4.3997056e-06
1.4425688e-06
-9.6224408e-07
-6.9172815e-06
-8.1754806e-06
1.387682e-06
6.024881e-06
1.0021964e-06
4.7609145e-06
2.9003013e-06
3.1913784e-07
-1.384912e-06
-1.3304287e-06
-1.5363962e-06
-3.120684e-07
7.932356e-07
-1.8481372e-07
-1.3795951e-06
-2.8403886e-06
-2.6621596e-06
1.2084764e-07
2.2163732e-06
2.3539784e-06
3.0965705e-06
1.5217988e-06
4.154558e-07
-4.5238038e-07
-7.4731275e-07
-8.9235507e-07
-5.6378998e-07
-2.6292035e-07
-6.1775291e-07
-1.0643427e-06
-1.3653884e-06
-9.8681597e-07
1.6291997e-07
1.2395896e-06
1.724091e-06
1.9209859e-06
9.1438879e-07
3.526549e-07
-1.4614827e-07
-4.353282e-07
-5.9426799e-07
-5.5705512e-07
-5.1308943e-07
-6.4362134e-07
-7.5881829e-07
-7.1510484e-07
-3.7318691e-07
2.4057037e-07
8.3625251e-07
1.167144e-06
1.2159814e-06
5.9351686e-07
2.7173513e-07
-3.9594397e-08
-2.6930856e-07
-4.1551468e-07
-4.735179e-07
-4.9900899e-07
-5.3270313e-07
-5.2056456e-07
-3.9704731e-07
-1.2751542e-07
2.438123e-07
5.9006532e-07
7.8761229e-07
7.9013091e-07
3.9949126e-07
2.0138978e-07
-3.768456e-09
-1.7629112e-07
-3.0122103e-07
-3.7229778e-07
-4.0370166e-07
-4.0536261e-07
-3.535054e-07
-2.3027848e-07
-2.9406979e-08
2.0786941e-07
4.1748114e-07
5.3357643e-07
5.2485345e-07
2.7498291e-07
1.4532798e-07
5.4868667e-09
-1.208912e-07
-2.192374e-07
-2.7994792e-07
-3.0571761e-07
-2.9415388e-07
-2.3916868e-07
-1.3743294e-07
6.3728889e-09
1.6291303e-07
2.9379258e-07
3.6401884e-07
3.5438709e-07
1.9135921e-07
1.0300183e-07
5.861523e-09
-8.4962433e-08
-1.5848375e-07
-2.0435582e-07
-2.2177917e-07
-2.066686e-07
-1.609258e-07
-8.4365382e-08
1.6723988e-08
1.2099107e-07
2.0519746e-07
2.5100542e-07
2.4336777e-07
1.3252387e-07
7.2903243e-08
2.4594893e-09
-6.2311839e-08
-1.1317173e-07
-1.4739124e-07
-1.5709632e-07
-1.4435986e-07
-1.0869991e-07
-5.2985688e-08
1.5894277e-08
8.7739082e-08
1.4502217e-07
1.7418027e-07
1.7212283e-07
9.4014772e-08
5.0124739e-08
-2.8874622e-10
-4.6253694e-08
-8.2071152e-08
-1.0591024e-07
-1.112713e-07
-9.9931869e-08
-7.4500927e-08
-3.6079753e-08
1.2135702e-08
6.2305349e-08
1.0207551e-07
1.2345353e-07
1.2226705e-07
6.9620473e-08
3.5111593e-08
-3.0176244e-09
-3.6351285e-08
-6.1658707e-08
-7.702969e-08
-8.062047e-08
-7.1611538e-08
-5.3641459e-08
-2.7050116e-08
7.657104e-09
4.4554319e-08
7.3718534e-08
8.9766275e-08
8.9179539e-08
5.3900817e-08
2.5720692e-08
-4.8111255e-09
-3.0167056e-08
-4.8560179e-08
-5.9859513e-08
-6.2419132e-08
-5.553147e-08
-4.2333161e-08
-2.293469e-08
3.6745499e-09
3.2890597e-08
5.6210927e-08
6.9603715e-08
7.0040525e-08
4.6518836e-08
2.1294992e-08
-5.70489e-09
-2.7315322e-08
-4.2238479e-08
-5.157018e-08
-5.3857302e-08
-4.831185e-08
-3.7395043e-08
-2.1349861e-08
1.4812788e-09