/*--------------------------------*- C++ -*----------------------------------*\
| =========                 |                                                 |
| \\      /  F ield         | OpenFOAM: The Open Source CFD Toolbox           |
|  \\    /   O peration     | Version:  3.0.1                                 |
|   \\  /    A nd           | Web:      www.OpenFOAM.org                      |
|    \\/     M anipulation  |                                                 |
\*---------------------------------------------------------------------------*/
FoamFile
{
    version     2.0;
    format      ascii;
    class       volScalarField;
    location    "0.2";
    object      sigmaxy;
}
// * * * * * * * * * * * * * * * * * * * * * * * * * * * * * * * * * * * * * //

dimensions      [0 2 -2 0 0 0 0];

internalField   nonuniform List<scalar> 
3375
(
-0.03295043
-0.015993216
-0.014152781
-1.8201287
-0.012204442
-0.016843386
-0.10774714
-0.058213611
-0.0017304222
-0.024556602
-0.055111475
-0.1365555
-0.016196947
-0.013171495
-0.0034178078
-4.0257595e-05
-6.1376697e-05
4.2412787e-06
-0.00035518754
-9.3297237e-06
-8.7376295e-05
-9.7840098e-05
-6.9127459e-05
5.3605656e-05
9.7225428e-05
-3.5037979e-05
-8.0995667e-05
-0.00013999629
-1.9357665e-05
-4.3568108e-05
-1.4301361e-05
-1.4365643e-05
4.5300609e-06
2.219971e-05
-1.7185244e-06
-2.5886826e-05
-2.5956504e-05
-8.1957586e-06
3.7680549e-05
5.4368711e-05
1.0613287e-05
-1.2100335e-05
-1.7089108e-06
-8.9334347e-06
-1.6521407e-05
-7.7380703e-06
-5.7121609e-06
1.9143615e-07
3.9975825e-06
-2.5834147e-06
-1.0241456e-05
-1.0020179e-05
-3.635376e-07
1.7111517e-05
2.3002714e-05
9.0140401e-06
-1.3990771e-06
-1.8786774e-06
-5.1375421e-06
-8.2432853e-06
-4.305055e-06
-3.1915824e-06
-1.1702157e-06
-1.7899902e-07
-2.0783181e-06
-4.2589737e-06
-3.4786385e-06
1.1828598e-06
7.872335e-06
1.011596e-05
5.7512391e-06
1.2842238e-06
-6.5839801e-07
-2.6423124e-06
-4.2441324e-06
-2.4691336e-06
-2.0316185e-06
-1.3057555e-06
-9.6691508e-07
-1.4349839e-06
-1.8510693e-06
-1.0892862e-06
1.1393344e-06
3.8380693e-06
4.8137621e-06
3.4125487e-06
1.4595221e-06
8.490075e-09
-1.2761544e-06
-2.2468129e-06
-1.445395e-06
-1.3432446e-06
-1.0738698e-06
-9.0304764e-07
-9.3284875e-07
-8.5226969e-07
-2.7554612e-07
8.301269e-07
2.0011184e-06
2.4762368e-06
2.0035345e-06
1.1006756e-06
2.1253966e-07
-5.9576751e-07
-1.2022435e-06
-8.6448293e-07
-8.8232838e-07
-7.8665169e-07
-6.8295062e-07
-5.950732e-07
-4.1789608e-07
-2.8411728e-08
5.5531847e-07
1.1149817e-06
1.3581417e-06
1.1830146e-06
7.4646202e-07
2.3036972e-07
-2.7028294e-07
-6.6021096e-07
-5.2668862e-07
-5.7069454e-07
-5.4267547e-07
-4.7959532e-07
-3.8403345e-07
-2.2038564e-07
3.906325e-08
3.6255535e-07
6.479265e-07
7.8187151e-07
7.1208215e-07
4.869628e-07
1.8955024e-07
-1.2035659e-07
-3.7558226e-07
-3.2526757e-07
-3.6802509e-07
-3.6409622e-07
-3.236093e-07
-2.4337247e-07
-1.1945313e-07
4.7490532e-08
2.3478558e-07
3.8799044e-07
4.6324384e-07
4.3484063e-07
3.1224296e-07
1.354312e-07
-5.3868673e-08
-2.1833276e-07
-1.9853906e-07
-2.3571966e-07
-2.4024752e-07
-2.1234931e-07
-1.5167497e-07
-6.7908478e-08
3.555023e-08
1.5004359e-07
2.4247542e-07
2.8295651e-07
2.652248e-07
1.9514199e-07
8.7836753e-08
-2.5996831e-08
-1.2679349e-07
-1.2001298e-07
-1.4751437e-07
-1.5394202e-07
-1.3545801e-07
-9.6863075e-08
-4.1831621e-08
2.5016698e-08
9.422212e-08
1.5137369e-07
1.7599875e-07
1.6173346e-07
1.1819594e-07
5.618814e-08
-1.258303e-08
-7.45237e-08
-7.5335247e-08
-9.2588239e-08
-9.4707103e-08
-8.0195126e-08
-5.6432177e-08
-2.149593e-08
2.0154712e-08
5.7344355e-08
8.6102377e-08
1.0156386e-07
9.5709568e-08
7.04955e-08
3.6400491e-08
-3.3605111e-09
-4.365653e-08
-4.3350013e-08
-5.2676714e-08
-5.1101597e-08
-4.0501001e-08
-2.8577003e-08
-9.8488303e-09
1.3409768e-08
3.0310575e-08
4.2217269e-08
5.1718531e-08
5.1903689e-08
3.9031674e-08
2.1013768e-08
-1.5613325e-10
-2.3393981e-08
-7.5402705e-08
-9.8404927e-08
-1.0227089e-07
-8.9648199e-08
-6.1941476e-08
-2.4210015e-08
1.695445e-08
5.5165195e-08
8.3953143e-08
9.9553624e-08
9.9353735e-08
8.1437667e-08
4.7975324e-08
5.4272695e-09
-3.7942195e-08
-0.015174376
-0.008686006
-0.047584531
-0.016128474
-0.016152195
-0.013314707
-0.017632512
-0.031649774
-3.3815306
-7.6721768
-0.063619822
-0.01748551
-0.0022378799
-0.025932432
-0.015005714
-4.7367184e-05
-4.2548377e-05
-1.58713e-05
1.2739453e-05
-7.7597106e-05
-6.2204164e-05
-0.00017572295
-0.00019654857
-0.00059039421
-0.0014413513
-5.358412e-05
-0.00023788219
-6.1779721e-05
-2.3183458e-05
-3.7434754e-05
-1.2583233e-05
-6.8090972e-06
3.1335779e-06
7.4783956e-06
-5.3113999e-06
-2.7031333e-05
-4.7106332e-05
-2.950654e-05
7.509876e-05
0.00011887685
1.1453023e-05
-4.5571936e-05
-1.7923826e-05
-1.0792774e-05
-1.4220096e-05
-7.4202213e-06
-4.4068717e-06
-4.4408745e-07
7.646732e-07
-4.0887683e-06
-1.150423e-05
-1.4255824e-05
-2.9137589e-06
2.5466181e-05
3.5722718e-05
1.032764e-05
-7.6833005e-06
-5.9233374e-06
-5.7615898e-06
-7.8794568e-06
-4.2628097e-06
-2.9912306e-06
-1.4630265e-06
-1.0741009e-06
-2.7226004e-06
-4.7847074e-06
-4.2865993e-06
1.114914e-06
9.9947689e-06
1.2925846e-05
6.2645628e-06
1.3958075e-08
-1.6433495e-06
-2.8550868e-06
-4.2305456e-06
-2.4651399e-06
-2.0334194e-06
-1.4512385e-06
-1.2706574e-06
-1.6944766e-06
-2.0386018e-06
-1.2210623e-06
1.2849229e-06
4.4623725e-06
5.525781e-06
3.5910929e-06
1.1837127e-06
-2.5461005e-07
-1.3634492e-06
-2.2552296e-06
-1.4534634e-06
-1.3620406e-06
-1.1445828e-06
-1.0234008e-06
-1.0338727e-06
-9.1142576e-07
-2.8595501e-07
9.2465163e-07
2.2140821e-06
2.6873869e-06
2.0680393e-06
1.0380747e-06
1.3416028e-07
-6.3419988e-07
-1.2174547e-06
-8.7404293e-07
-8.9773738e-07
-8.1869879e-07
-7.3116559e-07
-6.3751716e-07
-4.3741807e-07
-1.770431e-08
6.0340877e-07
1.1940311e-06
1.4313303e-06
1.2104986e-06
7.3067543e-07
2.0319173e-07
-2.8838289e-07
-6.7046919e-07
-5.3196014e-07
-5.8160675e-07
-5.5983757e-07
-5.0088323e-07
-4.0011773e-07
-2.2656729e-07
4.5340445e-08
3.8441401e-07
6.7979857e-07
8.0886413e-07
7.2450475e-07
4.8388443e-07
1.7840278e-07
-1.268377e-07
-3.7739885e-07
-3.2667554e-07
-3.7439942e-07
-3.738979e-07
-3.3303284e-07
-2.5169089e-07
-1.2437281e-07
4.966695e-08
2.4445804e-07
4.0308572e-07
4.7520526e-07
4.4034143e-07
3.1184427e-07
1.3137425e-07
-5.4959824e-08
-2.169467e-07
-2.0113051e-07
-2.3987202e-07
-2.443686e-07
-2.1646477e-07
-1.5695834e-07
-6.9254586e-08
4.0065744e-08
1.5557844e-07
2.4861596e-07
2.8884069e-07
2.6747877e-07
1.9460786e-07
8.7970777e-08
-2.687597e-08
-1.2823347e-07
-1.232523e-07
-1.5153234e-07
-1.5607935e-07
-1.3757271e-07
-9.7261162e-08
-3.9004435e-08
2.9278576e-08
9.7775047e-08
1.5291828e-07
1.7697507e-07
1.6232159e-07
1.1865725e-07
5.6712665e-08
-1.3671174e-08
-7.6265e-08
-7.5732407e-08
-9.3418854e-08
-9.5426613e-08
-8.2536706e-08
-5.703451e-08
-2.0681146e-08
2.0577403e-08
5.9051405e-08
8.8226984e-08
1.0205416e-07
9.6086839e-08
7.1743542e-08
3.604237e-08
-4.7380116e-09
-4.4214452e-08
-4.1803883e-08
-5.1146929e-08
-5.1357169e-08
-4.3259847e-08
-2.970977e-08
-9.9824892e-09
1.2470635e-08
3.1193268e-08
4.4732896e-08
5.2655702e-08
5.1177811e-08
3.8787689e-08
2.0515558e-08
-9.258696e-10
-2.3347602e-08
-7.5742299e-08
-9.7607201e-08
-1.014663e-07
-8.8221085e-08
-6.103008e-08
-2.3908896e-08
1.7207615e-08
5.5075744e-08
8.4170294e-08
1.0000889e-07
9.9186927e-08
8.0727575e-08
4.7137772e-08
4.0474859e-09
-3.958644e-08
-0.033348244
-0.066475188
-0.85550687
-0.026029294
-0.031149593
-0.020106288
-0.034958792
-0.012784503
-0.026092845
-0.080701597
-0.0058726697
-0.047590136
-0.016189752
-0.010862523
-0.022689648
-6.8337859e-05
-2.1801083e-05
-0.00017103092
-6.1700713e-06
-4.5347189e-05
-3.5454914e-05
-6.5447539e-05
-4.0218787e-05
6.911722e-05
8.4017511e-05
-2.3852979e-05
-8.6064978e-05
-0.00013433943
-0.00012695581
-4.6336606e-05
-1.7991895e-05
-4.8080808e-06
7.6958169e-06
1.6917816e-06
-1.0022931e-05
-1.7607122e-05
-2.3049757e-05
-8.2936914e-06
3.8974018e-05
5.5544407e-05
6.344985e-06
-1.8028714e-05
1.9918145e-06
1.814103e-06
-1.4533057e-05
-7.9668023e-06
-3.8349233e-06
1.6139675e-08
-1.0191555e-06
-5.0851467e-06
-8.6008965e-06
-8.8053206e-06
7.3904025e-08
1.7568631e-05
2.3012097e-05
7.3161733e-06
-3.3107212e-06
-5.7770261e-07
-1.6939513e-06
-7.0924311e-06
-4.0956396e-06
-2.7695463e-06
-1.4856034e-06
-1.5949719e-06
-2.8836897e-06
-3.9334866e-06
-2.999941e-06
1.5018371e-06
8.03073e-06
9.9705384e-06
5.1020689e-06
6.5881155e-07
-2.7265819e-07
-1.5665562e-06
-3.6618986e-06
-2.2872875e-06
-1.9233202e-06
-1.4657541e-06
-1.4089131e-06
-1.7106096e-06
-1.7860596e-06
-8.9966157e-07
1.3026499e-06
3.8969211e-06
4.7009087e-06
3.1410485e-06
1.2378718e-06
1.038127e-07
-9.4202388e-07
-1.9595853e-06
-1.3494957e-06
-1.2961942e-06
-1.1344832e-06
-1.0539289e-06
-1.0262298e-06
-8.312799e-07
-2.0580823e-07
8.9665987e-07
2.0232609e-06
2.4144753e-06
1.8807983e-06
1.0115518e-06
2.3214563e-07
-4.8272624e-07
-1.0787464e-06
-8.1870735e-07
-8.5908743e-07
-8.0449692e-07
-7.3287632e-07
-6.2884424e-07
-4.1177142e-07
6.844875e-10
5.8106787e-07
1.1166977e-06
1.327012e-06
1.1299171e-06
7.0420075e-07
2.2977482e-07
-2.2890332e-07
-6.0466802e-07
-5.0172577e-07
-5.6019575e-07
-5.4750997e-07
-4.9400568e-07
-3.9260266e-07
-2.1903011e-07
4.6630425e-08
3.6928737e-07
6.4388664e-07
7.6423754e-07
6.8782895e-07
4.6617396e-07
1.8403858e-07
-1.0257449e-07
-3.4443912e-07
-3.1041236e-07
-3.6124255e-07
-3.6456603e-07
-3.2663034e-07
-2.4689032e-07
-1.2198109e-07
4.731452e-08
2.3497284e-07
3.8680573e-07
4.5362024e-07
4.2060696e-07
3.0176957e-07
1.3244779e-07
-4.4405573e-08
-2.0140942e-07
-1.9327307e-07
-2.3214482e-07
-2.3880784e-07
-2.1318555e-07
-1.5510162e-07
-6.8070445e-08
3.9078255e-08
1.5062418e-07
2.4004297e-07
2.7755596e-07
2.574788e-07
1.8966021e-07
8.8629263e-08
-2.145406e-08
-1.2103224e-07
-1.1931581e-07
-1.4798082e-07
-1.5314287e-07
-1.3623398e-07
-9.670834e-08
-3.8064876e-08
2.9412283e-08
9.5316648e-08
1.4740579e-07
1.7173733e-07
1.5848319e-07
1.1574924e-07
5.6610318e-08
-1.1151624e-08
-7.2116478e-08
-7.3078345e-08
-9.0995131e-08
-9.4003802e-08
-8.2608186e-08
-5.707297e-08
-2.0413943e-08
2.0187862e-08
5.800494e-08
8.6403513e-08
9.9660768e-08
9.3746476e-08
7.0281887e-08
3.579966e-08
-3.8082468e-09
-4.2104483e-08
-3.988658e-08
-4.9649989e-08
-5.0927042e-08
-4.3709105e-08
-2.9610965e-08
-9.76823e-09
1.2009563e-08
3.0969803e-08
4.4856576e-08
5.1781037e-08
4.931595e-08
3.7733852e-08
2.0223888e-08
-9.2608238e-10
-2.2412671e-08
-7.4010626e-08
-9.5297624e-08
-9.8638697e-08
-8.4893601e-08
-5.8793266e-08
-2.3979513e-08
1.5527201e-08
5.2548963e-08
8.1260961e-08
9.7281904e-08
9.7232803e-08
7.9676523e-08
4.6642901e-08
4.1401439e-09
-3.8698073e-08
-0.030493266
-0.00419453
-0.026004062
-0.0036702649
-0.025868193
-0.024909866
-0.02824366
-0.034407776
-0.029905181
-0.11424607
-0.063484866
-0.0051389074
-0.43691738
-0.0063976156
-0.023281665
-4.0155986e-05
-1.3239751e-05
-4.4055334e-06
-1.5262164e-05
-2.0630705e-05
-7.5906652e-05
-4.3618087e-05
-2.3450379e-05
-2.9033138e-05
-4.709841e-06
-3.8428233e-05
-2.3496812e-05
-8.1463739e-05
-2.0588342e-05
-3.2283864e-05
-1.0841102e-05
-3.8075831e-06
1.6474483e-06
-2.3570312e-06
-6.4507753e-06
-6.7756926e-06
-8.539193e-06
-5.2381995e-07
1.7752852e-05
2.1146251e-05
2.4375031e-06
-3.3600039e-06
7.6741261e-06
2.1173605e-06
-1.0300059e-05
-5.8443531e-06
-3.1850036e-06
-9.5907678e-07
-2.0045637e-06
-3.9127256e-06
-4.6131651e-06
-3.9702796e-06
1.4627955e-06
9.8991806e-06
1.1464696e-05
4.2593217e-06
5.2587787e-07
2.280069e-06
-3.0161362e-07
-5.1012258e-06
-3.2689325e-06
-2.3740361e-06
-1.5420706e-06
-1.7206822e-06
-2.385016e-06
-2.5723373e-06
-1.5287798e-06
1.5328332e-06
5.2226575e-06
6.0711547e-06
3.5334753e-06
1.46031e-06
9.2121027e-07
-6.2615076e-07
-2.7236389e-06
-1.8963745e-06
-1.6853497e-06
-1.3763773e-06
-1.3525201e-06
-1.4743366e-06
-1.3191179e-06
-4.9266505e-07
1.1356592e-06
2.8333396e-06
3.3116949e-06
2.4107367e-06
1.3239629e-06
5.3559395e-07
-4.6255436e-07
-1.4916931e-06
-1.1445537e-06
-1.1511028e-06
-1.0476565e-06
-9.8349252e-07
-9.111064e-07
-6.7089322e-07
-1.0874597e-07
7.6332232e-07
1.5914325e-06
1.8791147e-06
1.5455361e-06
9.6916988e-07
3.7782591e-07
-2.6361064e-07
-8.4524028e-07
-7.0895775e-07
-7.7272465e-07
-7.420699e-07
-6.8126515e-07
-5.719034e-07
-3.5575674e-07
1.4467773e-08
4.9923877e-07
9.2796631e-07
1.102959e-06
9.7309879e-07
6.5918532e-07
2.757019e-07
-1.3165266e-07
-4.8828777e-07
-4.413101e-07
-5.0907106e-07
-5.068541e-07
-4.6106831e-07
-3.643494e-07
-1.990716e-07
4.1879047e-08
3.2272437e-07
5.5801454e-07
6.6579283e-07
6.1129155e-07
4.3340129e-07
1.9559114e-07
-6.0792707e-08
-2.8617752e-07
-2.7838936e-07
-3.301749e-07
-3.3951717e-07
-3.0755637e-07
-2.3221785e-07
-1.1429367e-07
4.0431927e-08
2.0949687e-07
3.4678644e-07
4.0598192e-07
3.8017537e-07
2.8285749e-07
1.3552262e-07
-2.5267972e-08
-1.7383542e-07
-1.7659956e-07
-2.1480248e-07
-2.2460118e-07
-2.0239148e-07
-1.4764701e-07
-6.5814523e-08
3.3610251e-08
1.365943e-07
2.1877554e-07
2.5231437e-07
2.3725471e-07
1.8075751e-07
8.9932845e-08
-1.090426e-08
-1.0647904e-07
-1.0955345e-07
-1.3932876e-07
-1.4569593e-07
-1.3025402e-07
-9.3433465e-08
-3.8119819e-08
2.6102164e-08
8.7784865e-08
1.3527372e-07
1.5990231e-07
1.4998457e-07
1.1038548e-07
5.6388755e-08
-6.1812499e-09
-6.325517e-08
-6.7818156e-08
-8.6216006e-08
-8.9929531e-08
-7.9448327e-08
-5.5382613e-08
-2.02856e-08
1.8707542e-08
5.4546393e-08
8.1256397e-08
9.4383698e-08
8.8877841e-08
6.6803857e-08
3.510395e-08
-2.3474962e-09
-3.8251949e-08
-3.7383173e-08
-4.7280251e-08
-4.8645192e-08
-4.1972578e-08
-2.8604258e-08
-9.3460687e-09
1.1589298e-08
2.972665e-08
4.3199492e-08
4.9657421e-08
4.6522523e-08
3.54739e-08
1.9175605e-08
-1.1084353e-09
-2.1004936e-08
-7.0578023e-08
-9.1449187e-08
-9.4268451e-08
-8.0710493e-08
-5.6181505e-08
-2.4211025e-08
1.2698506e-08
4.7865141e-08
7.5389075e-08
9.1820543e-08
9.3701744e-08
7.8110972e-08
4.6900714e-08
6.3440832e-09
-3.5432096e-08
-0.011969797
-0.0092507363
-0.017114282
-0.030432276
-0.024184718
-0.026975867
-0.062485328
-0.011210095
-0.020542674
-0.0074411813
-0.032911583
-0.018598107
-0.014025291
-0.039587132
-0.018035363
-2.556813e-05
-2.7096451e-05
-3.5033811e-05
-1.8293207e-05
-3.1761413e-05
-2.8777465e-05
-2.2848628e-05
-8.6940187e-05
-5.1422224e-06
-1.6213201e-05
-4.6771637e-05
-7.1845327e-06
-0.00015208893
-9.2109735e-07
-5.7912657e-05
-8.412472e-06
-3.3006473e-06
1.2923446e-06
-6.9443298e-07
-4.5114202e-06
-6.8049137e-06
-2.6111411e-06
5.7731352e-06
6.714832e-06
2.9154922e-06
-4.0532073e-06
3.453253e-06
1.7038614e-05
3.3451793e-06
-1.0404131e-05
-4.5688503e-06
-2.6109035e-06
-7.3348413e-07
-1.3662337e-06
-2.8440865e-06
-3.5340505e-06
-1.5141859e-06
2.6907748e-06
4.6740496e-06
3.8416354e-06
1.0906975e-06
2.4323612e-06
5.6521496e-06
1.0297356e-06
-4.239707e-06
-2.5359826e-06
-1.9293028e-06
-1.2634079e-06
-1.3672593e-06
-1.8012999e-06
-1.8121807e-06
-6.8203856e-07
1.4248158e-06
2.9111582e-06
2.9797829e-06
2.0107165e-06
1.8267143e-06
2.0085078e-06
1.9956444e-07
-1.9697902e-06
-1.4805998e-06
-1.383173e-06
-1.1569918e-06
-1.1205388e-06
-1.158023e-06
-9.5479519e-07
-2.4950379e-07
8.6630623e-07
1.7957688e-06
2.0289593e-06
1.6721857e-06
1.3065795e-06
8.9909392e-07
-2.6852753e-08
-1.0384161e-06
-9.0761622e-07
-9.6549878e-07
-8.9638133e-07
-8.3448674e-07
-7.5007873e-07
-5.2186593e-07
-6.1328776e-08
5.6932286e-07
1.1153545e-06
1.3205104e-06
1.1831093e-06
8.9194458e-07
4.9836181e-07
-4.9756853e-08
-5.9159044e-07
-5.7330483e-07
-6.5795689e-07
-6.4597393e-07
-5.9382983e-07
-4.9085969e-07
-2.9584314e-07
9.8099325e-09
3.8289055e-07
7.0378075e-07
8.4885366e-07
7.9033465e-07
5.9463705e-07
3.1322832e-07
-3.1019112e-08
-3.5474765e-07
-3.6422449e-07
-4.4041849e-07
-4.4885387e-07
-4.115626e-07
-3.244272e-07
-1.7675014e-07
2.8604743e-08
2.5864497e-07
4.4994717e-07
5.4699665e-07
5.1850335e-07
3.9024633e-07
2.0505386e-07
-1.5151158e-08
-2.1660917e-07
-2.387983e-07
-2.8920586e-07
-3.0446584e-07
-2.7961067e-07
-2.1178605e-07
-1.0593334e-07
2.9640118e-08
1.7526927e-07
2.9270121e-07
3.4498767e-07
3.3085683e-07
2.5933274e-07
1.384655e-07
-1.8248262e-09
-1.3962848e-07
-1.5626001e-07
-1.9129869e-07
-2.0399488e-07
-1.8631038e-07
-1.3691577e-07
-6.2846637e-08
2.5768966e-08
1.1724105e-07
1.9062666e-07
2.1900633e-07
2.104383e-07
1.691547e-07
9.1404373e-08
2.7590602e-09
-8.877308e-08
-9.6293425e-08
-1.2735379e-07
-1.3477247e-07
-1.2119277e-07
-8.838086e-08
-3.8102819e-08
2.0744239e-08
7.6841158e-08
1.2037254e-07
1.4475403e-07
1.379191e-07
1.0319163e-07
5.541029e-08
-9.117505e-10
-5.2225114e-08
-6.0743082e-08
-7.9684274e-08
-8.3485126e-08
-7.4160003e-08
-5.2750155e-08
-1.9980365e-08
1.6585766e-08
4.9373588e-08
7.414567e-08
8.8148198e-08
8.3156243e-08
6.1640302e-08
3.3008403e-08
-1.7142933e-09
-3.3540871e-08
-3.4146479e-08
-4.3797441e-08
-4.489868e-08
-3.9261838e-08
-2.7375569e-08
-8.507951e-09
1.1400831e-08
2.7524446e-08
3.9861229e-08
4.7354189e-08
4.3952716e-08
3.1830413e-08
1.7052407e-08
-1.706468e-09
-1.9281808e-08
-6.5994792e-08
-8.7104338e-08
-8.9652832e-08
-7.6442252e-08
-5.3364903e-08
-2.4180498e-08
9.5151985e-09
4.1694996e-08
6.7081582e-08
8.4388978e-08
8.9304826e-08
7.6561775e-08
4.8387406e-08
1.0265818e-08
-3.0460962e-08
-0.0032403067
-0.028051765
-0.025571799
-0.19901005
-0.01147584
-0.022718377
-0.011261204
-0.015005186
-0.015806308
-0.017002576
-0.023997597
-0.025778844
-0.037898787
-0.0081065974
-0.012964888
-1.9478986e-05
-2.0650966e-05
-9.9344763e-06
-4.3721166e-05
-1.1136069e-05
-2.4344176e-05
-9.6277231e-06
-1.2093622e-05
-9.0735821e-06
-1.2164958e-05
-3.7908786e-05
-1.659964e-06
-4.9592156e-05
-2.174171e-06
-2.4451517e-05
-5.4715191e-06
-3.237433e-06
1.1013478e-06
1.0103699e-06
-2.4269948e-06
-3.6445524e-06
-1.451795e-06
1.8586943e-06
1.4067471e-06
-3.2866518e-07
-1.9101432e-06
3.5678321e-06
1.1212579e-05
3.4119828e-06
-5.2138361e-06
-3.1795869e-06
-2.1479284e-06
-4.3885964e-07
-6.1461968e-07
-1.7277547e-06
-1.9862503e-06
-8.2989989e-07
1.000992e-06
1.5800249e-06
1.2348326e-06
6.9101906e-07
2.4561892e-06
4.5638154e-06
1.5932231e-06
-2.195238e-06
-1.8171237e-06
-1.5257537e-06
-9.2779474e-07
-9.2824542e-07
-1.2099009e-06
-1.1307839e-06
-4.1924807e-07
6.710016e-07
1.3196288e-06
1.4037393e-06
1.2976393e-06
1.7026635e-06
1.9731344e-06
6.6247323e-07
-1.0714309e-06
-1.0796563e-06
-1.0976628e-06
-9.1151419e-07
-8.5091668e-07
-8.447152e-07
-6.6014687e-07
-1.8337032e-07
4.7543555e-07
9.9097746e-07
1.1840906e-06
1.1721773e-06
1.1658423e-06
9.7106198e-07
2.614697e-07
-5.9307317e-07
-6.8467593e-07
-7.751911e-07
-7.3233933e-07
-6.7217183e-07
-5.8461214e-07
-3.9586132e-07
-6.3449737e-08
3.5335685e-07
7.0679274e-07
8.8225617e-07
8.8933081e-07
7.8802853e-07
5.4372307e-07
1.1161727e-07
-3.6680432e-07
-4.4740402e-07
-5.3935698e-07
-5.4169233e-07
-4.9718462e-07
-4.0523295e-07
-2.4421581e-07
-9.915469e-09
2.6180224e-07
4.9678877e-07
6.2260562e-07
6.2607756e-07
5.2747659e-07
3.3142785e-07
5.4432674e-08
-2.3560919e-07
-2.9577194e-07
-3.6807159e-07
-3.8483268e-07
-3.5580679e-07
-2.7862266e-07
-1.5421492e-07
9.7574432e-09
1.915468e-07
3.4558824e-07
4.2456915e-07
4.241068e-07
3.5280526e-07
2.1287771e-07
3.1124718e-08
-1.5505555e-07
-1.9087919e-07
-2.5224486e-07
-2.6818697e-07
-2.4771162e-07
-1.9081697e-07
-1.0018507e-07
1.473059e-08
1.3488589e-07
2.3329017e-07
2.9197627e-07
2.8950645e-07
2.3051967e-07
1.3615733e-07
1.598549e-08
-9.7027182e-08
-1.2586255e-07
-1.7144428e-07
-1.8332238e-07
-1.6795417e-07
-1.2714362e-07
-6.2800206e-08
1.5682211e-08
9.3540285e-08
1.5585048e-07
1.9622082e-07
1.937872e-07
1.5012341e-07
8.7357983e-08
8.8588842e-09
-6.2894087e-08
-8.7112375e-08
-1.1149488e-07
-1.2102506e-07
-1.1082672e-07
-8.080874e-08
-3.607173e-08
1.5243297e-08
6.6065837e-08
1.0606502e-07
1.226696e-07
1.2027402e-07
9.9103755e-08
5.6941768e-08
6.901162e-09
-4.592495e-08
-5.5102852e-08
-7.0563945e-08
-7.5746538e-08
-6.8710655e-08
-4.9065558e-08
-1.9457534e-08
1.3055779e-08
4.3675829e-08
6.8073399e-08
7.6467714e-08
7.2762206e-08
5.9447636e-08
3.3111729e-08
1.9294102e-09
-2.9876617e-08
-3.0864693e-08
-3.8957861e-08
-4.105329e-08
-3.6920358e-08
-2.5750847e-08
-8.204349e-09
9.5951796e-09
2.4780991e-08
3.7679577e-08
4.1383264e-08
3.7961795e-08
3.0860237e-08
1.7008481e-08
-1.6674075e-10
-1.7351387e-08
-6.1693734e-08
-8.2153641e-08
-8.5636881e-08
-7.3554631e-08
-5.1817157e-08
-2.4352379e-08
7.1252262e-09
3.7043109e-08
6.1113629e-08
7.8613694e-08
8.4761238e-08
7.4215444e-08
4.8948303e-08
1.3763792e-08
-2.6376015e-08
-0.13773579
-0.0010775086
-0.031094503
-0.014518362
-0.023251649
-0.03126318
-0.0079969299
-0.10515803
-0.061972468
-0.02507467
-0.029643344
-0.023990329
-0.0087225478
-0.0045444647
-0.024371156
-5.3987163e-05
-9.6869897e-06
-9.1377074e-05
-7.2030745e-07
-2.8677411e-05
-1.5521625e-05
-9.5088407e-06
-2.8499045e-05
-2.0602831e-05
-1.5579807e-05
-1.6380231e-05
-1.086011e-05
-1.3120637e-06
-1.1567537e-05
-1.9408152e-05
-4.9221281e-06
-3.1629283e-06
3.3382327e-06
1.0820188e-06
-2.5076543e-06
-1.922722e-06
-1.2589361e-06
1.7644153e-07
-5.912926e-07
-1.9465804e-06
-1.3577417e-06
2.571338e-06
6.6871624e-06
4.2564865e-06
-5.7533812e-07
-2.6092873e-06
-1.9518916e-06
3.8499893e-07
-1.6969208e-07
-1.2621616e-06
-1.0427121e-06
-6.6426354e-07
-9.6516285e-08
-3.403435e-08
-8.122705e-08
4.694805e-07
2.0785988e-06
3.3652521e-06
2.0755327e-06
-4.62124e-07
-1.3720226e-06
-1.2972245e-06
-5.8771176e-07
-5.9302685e-07
-8.0284878e-07
-6.6340388e-07
-3.5865161e-07
5.1905138e-08
3.3950648e-07
5.5328415e-07
9.1062415e-07
1.4819442e-06
1.7211206e-06
9.5456093e-07
-3.3805627e-07
-7.9152149e-07
-8.9762023e-07
-7.1671875e-07
-6.3427321e-07
-5.9680126e-07
-4.4536156e-07
-1.8255362e-07
1.4537048e-07
4.4396325e-07
6.6677524e-07
8.6311308e-07
1.0217598e-06
9.3669642e-07
4.4071333e-07
-2.5354167e-07
-5.0968175e-07
-6.3223436e-07
-6.0181352e-07
-5.3840285e-07
-4.4919414e-07
-3.0087745e-07
-8.6977306e-08
1.7044259e-07
4.1237352e-07
5.8721266e-07
6.8700598e-07
6.9480084e-07
5.4533999e-07
2.1379857e-07
-1.9179291e-07
-3.44156e-07
-4.4652934e-07
-4.5663645e-07
-4.1565217e-07
-3.3292979e-07
-2.0507562e-07
-3.5090899e-08
1.5824585e-07
3.3576673e-07
4.5843868e-07
5.0710906e-07
4.701755e-07
3.3452494e-07
1.1179974e-07
-1.3999031e-07
-2.3641622e-07
-3.1248021e-07
-3.3195189e-07
-3.065727e-07
-2.404574e-07
-1.3898778e-07
-9.9222247e-09
1.3099853e-07
2.551481e-07
3.3518136e-07
3.5918498e-07
3.1901878e-07
2.138895e-07
6.4008784e-08
-1.0064166e-07
-1.6027419e-07
-2.1790202e-07
-2.354826e-07
-2.1867607e-07
-1.6909265e-07
-9.2457515e-08
1.7908855e-09
1.0050204e-07
1.8459731e-07
2.3884618e-07
2.5017609e-07
2.1400999e-07
1.3824973e-07
3.5796849e-08
-7.0084045e-08
-1.0858917e-07
-1.4994308e-07
-1.6331673e-07
-1.5099807e-07
-1.1483018e-07
-5.9344281e-08
7.2303047e-09
7.4684835e-08
1.3051496e-07
1.6588639e-07
1.6960234e-07
1.406589e-07
8.8394198e-08
1.9324674e-08
-4.9275095e-08
-7.452752e-08
-9.9439396e-08
-1.0897705e-07
-1.0067437e-07
-7.5289335e-08
-3.6274989e-08
9.4052593e-09
5.4407249e-08
9.1189631e-08
1.1006247e-07
1.0922924e-07
9.0678661e-08
5.547746e-08
1.0742719e-08
-3.6010036e-08
-4.7354682e-08
-6.2539316e-08
-6.8503073e-08
-6.3226961e-08
-4.6494595e-08
-2.0216324e-08
9.0992132e-09
3.6556751e-08
5.897843e-08
6.9599596e-08
6.7479558e-08
5.4925216e-08
3.23094e-08
3.9297578e-09
-2.4542966e-08
-2.6031005e-08
-3.4186798e-08
-3.7586175e-08
-3.4497498e-08
-2.4732665e-08
-9.4235692e-09
6.620809e-09
2.0793503e-08
3.2367675e-08
3.7513773e-08
3.6148873e-08
2.9309333e-08
1.6717982e-08
1.1089725e-09
-1.4123206e-08
-5.7061604e-08
-7.8233417e-08
-8.3082385e-08
-7.2546757e-08
-5.1820926e-08
-2.5037731e-08
5.39436e-09
3.4377207e-08
5.782647e-08
7.4739573e-08
8.138389e-08
7.2374152e-08
4.8744395e-08
1.5561225e-08
-2.2618456e-08
-0.049712628
-0.010743866
-0.0060892314
-0.023530979
-0.034173087
-0.030559136
-0.023527148
-0.010334569
-0.00030103859
-0.029658323
-0.016273759
-0.0017230341
-0.34937736
-0.39578361
-0.025139746
-2.9612536e-05
-2.4299563e-05
-6.4282373e-06
-2.9573766e-05
-1.3250018e-05
-1.7729022e-05
-1.6437831e-05
-1.0309887e-05
-1.2745504e-05
-2.090591e-05
-1.9867045e-05
-9.6107015e-06
-7.6655962e-05
-7.8732546e-05
-5.3772435e-05
-4.3268827e-06
-6.6675407e-06
-1.303474e-06
1.2434481e-06
8.0241322e-07
1.5030045e-06
-2.579898e-07
-2.7917834e-06
-3.8430983e-06
-3.1354317e-06
-5.516417e-07
3.031127e-06
6.4475336e-06
6.8094687e-06
2.8938937e-06
-1.9155735e-06
-2.8626721e-06
-1.0246558e-06
-5.3319478e-08
-3.5550198e-08
2.4908938e-07
-3.5818074e-07
-1.1922949e-06
-1.3848004e-06
-7.9240464e-07
6.6412238e-07
2.2505184e-06
2.9659047e-06
2.5631909e-06
9.265776e-07
-1.0182105e-06
-1.419711e-06
-8.7478604e-07
-4.748837e-07
-3.2767521e-07
-1.6875204e-07
-2.7962645e-07
-4.1798829e-07
-3.0536583e-07
1.1571525e-07
8.3252256e-07
1.4745976e-06
1.577498e-06
1.1148745e-06
1.7179074e-07
-6.1475853e-07
-8.4324395e-07
-7.1083026e-07
-5.3130075e-07
-3.8907656e-07
-2.5195966e-07
-1.6944129e-07
-8.5351105e-08
9.759045e-08
3.9391248e-07
7.407608e-07
9.7365514e-07
9.067801e-07
5.2922195e-07
-4.5958997e-08
-4.0628496e-07
-5.6321584e-07
-5.4801074e-07
-4.627815e-07
-3.4837128e-07
-2.2064856e-07
-9.9933321e-08
4.2047732e-08
2.2312869e-07
4.2044982e-07
5.8843487e-07
6.5223706e-07
5.4306954e-07
2.675039e-07
-8.762556e-08
-2.8250382e-07
-3.9358085e-07
-4.0849253e-07
-3.6499506e-07
-2.8202082e-07
-1.7455201e-07
-5.2404513e-08
8.608714e-08
2.3085531e-07
3.5952986e-07
4.417434e-07
4.411959e-07
3.3686608e-07
1.4495883e-07
-8.2686975e-08
-1.9833401e-07
-2.7686771e-07
-2.9822607e-07
-2.744507e-07
-2.1360179e-07
-1.2760668e-07
-2.4409488e-08
8.887556e-08
1.9605184e-07
2.7901215e-07
3.1974336e-07
3.0011941e-07
2.1534324e-07
8.2346376e-08
-6.7995482e-08
-1.3884454e-07
-1.9352963e-07
-2.1312289e-07
-1.9858027e-07
-1.5503492e-07
-8.8474243e-08
-7.7168394e-09
7.6482115e-08
1.5223238e-07
2.0587623e-07
2.2556218e-07
2.0275039e-07
1.3896305e-07
4.6947465e-08
-5.3510497e-08
-9.625819e-08
-1.3451439e-07
-1.4890925e-07
-1.3891809e-07
-1.0716704e-07
-5.7921997e-08
1.0516982e-09
6.106389e-08
1.1313115e-07
1.4673804e-07
1.542088e-07
1.3355237e-07
8.8075608e-08
2.5779385e-08
-3.991198e-08
-6.5382418e-08
-9.0870342e-08
-1.0047506e-07
-9.385521e-08
-7.0861612e-08
-3.589168e-08
4.9056335e-09
4.6283067e-08
8.0802789e-08
1.0029631e-07
1.0130003e-07
8.5358932e-08
5.4211265e-08
1.3075691e-08
-2.8897398e-08
-4.2052688e-08
-5.7190837e-08
-6.3708472e-08
-5.9544618e-08
-4.4435536e-08
-2.0608785e-08
6.2404321e-09
3.1922257e-08
5.2670682e-08
6.3768133e-08
6.3383578e-08
5.2268687e-08
3.1946932e-08
5.8260373e-09
-2.0485804e-08
-2.3401567e-08
-3.1696585e-08
-3.5509416e-08
-3.2831039e-08
-2.3864859e-08
-9.9181685e-09
5.1192367e-09
1.8493101e-08
2.8656559e-08
3.4137844e-08
3.4447615e-08
2.8377637e-08
1.6883368e-08
2.7688502e-09
-1.1662576e-08
-5.4752356e-08
-7.6364661e-08
-8.1464852e-08
-7.1562508e-08
-5.1724537e-08
-2.557121e-08
4.1051365e-09
3.2062747e-08
5.507692e-08
7.2294384e-08
7.953749e-08
7.1627311e-08
4.9506746e-08
1.7402904e-08
-2.0173514e-08
-0.035575541
-0.023789856
-0.13959814
-0.29144263
-0.10787212
-0.34268181
-0.021436888
-0.12937051
-0.0082967933
-0.0027425031
-0.25006096
-0.49775661
-0.021592218
-0.018236003
-0.2994092
-2.3319002e-05
-3.6349592e-05
-4.3201335e-05
-8.2004946e-05
-2.1905078e-05
-8.0923542e-05
-1.274664e-05
-5.2684972e-05
-2.2337616e-05
-2.6600038e-05
-5.6667641e-05
-0.00010028887
-1.8178298e-05
-1.8125817e-05
-8.5399915e-05
-2.9793984e-06
-7.1926247e-06
-2.2565551e-06
3.329406e-07
2.3070104e-06
5.1449336e-06
3.1362232e-07
-4.4577045e-06
-6.2301451e-06
-4.845007e-06
4.0422635e-06
8.2693699e-06
2.3914754e-06
1.4119988e-06
3.5443411e-06
-1.5563178e-06
-2.8814964e-06
-1.5948504e-06
-4.8388117e-07
5.9829788e-07
1.5249803e-06
-8.6446352e-08
-1.8420334e-06
-2.1478772e-06
-1.0567418e-06
1.7383575e-06
3.2871727e-06
2.2354866e-06
1.4462947e-06
8.1899426e-07
-9.1354885e-07
-1.4382153e-06
-1.0747271e-06
-5.8583105e-07
-6.740833e-08
2.8170305e-07
-1.9227698e-07
-7.0527683e-07
-6.1789459e-07
3.386275e-08
1.0967996e-06
1.7149331e-06
1.4422212e-06
8.8168935e-07
1.4396952e-07
-5.7731415e-07
-8.4580153e-07
-7.5990055e-07
-5.3402686e-07
-2.750229e-07
-1.0173564e-07
-1.5131936e-07
-2.1667006e-07
-5.773806e-08
3.3482316e-07
7.9778991e-07
1.0386308e-06
8.9395832e-07
4.9221109e-07
-3.7884217e-08
-3.8377182e-07
-5.5258016e-07
-5.480043e-07
-4.4605855e-07
-2.9794485e-07
-1.6756417e-07
-1.0475399e-07
-2.7876718e-08
1.379857e-07
3.7520954e-07
5.9226533e-07
6.6999641e-07
5.5151674e-07
2.7307989e-07
-7.1499105e-08
-2.6549768e-07
-3.7945837e-07
-3.9692745e-07
-3.4834759e-07
-2.5798018e-07
-1.575217e-07
-6.2873774e-08
4.8126492e-08
1.8517664e-07
3.2864188e-07
4.3292541e-07
4.4506297e-07
3.4412447e-07
1.539648e-07
-6.941593e-08
-1.8422032e-07
-2.6416288e-07
-2.8677025e-07
-2.6278311e-07
-2.0138151e-07
-1.2201748e-07
-3.3320157e-08
6.7848378e-08
1.7157452e-07
2.5990688e-07
3.1033929e-07
2.9899072e-07
2.1797499e-07
8.6483215e-08
-5.8462325e-08
-1.3151594e-07
-1.8174856e-07
-2.0302508e-07
-1.8958878e-07
-1.5017604e-07
-8.8377255e-08
-1.2955111e-08
6.4817515e-08
1.3892794e-07
1.9430648e-07
2.1844189e-07
2.0059878e-07
1.3964125e-07
5.0600169e-08
-4.994728e-08
-9.2140862e-08
-1.2643776e-07
-1.4187951e-07
-1.3299969e-07
-1.0493262e-07
-5.8629759e-08
-1.8627895e-09
5.4467985e-08
1.0539575e-07
1.3937034e-07
1.4871515e-07
1.3104571e-07
8.8278683e-08
2.9147254e-08
-3.7537876e-08
-6.0386367e-08
-8.7712166e-08
-9.7290496e-08
-9.142125e-08
-6.8152327e-08
-3.4945792e-08
2.563924e-09
4.2529303e-08
7.5857967e-08
9.5489161e-08
9.7489054e-08
8.2879666e-08
5.3632005e-08
1.402205e-08
-2.4554735e-08
-3.9820278e-08
-5.5580258e-08
-6.1995503e-08
-5.7983934e-08
-4.2933077e-08
-2.0128349e-08
5.3767962e-09
3.0158488e-08
4.9515775e-08
6.0450804e-08
6.1044451e-08
5.0919921e-08
3.2000267e-08
7.1265685e-09
-1.8151667e-08
-2.2953854e-08
-3.1393825e-08
-3.4759682e-08
-3.1788956e-08
-2.2964054e-08
-9.4182585e-09
5.1558127e-09
1.7638925e-08
2.6756969e-08
3.2306564e-08
3.3180943e-08
2.7719638e-08
1.7328139e-08
3.8712113e-09
-1.0679574e-08
-5.4605548e-08
-7.6485722e-08
-8.1024784e-08
-7.1151406e-08
-5.1841263e-08
-2.6290817e-08
2.7230374e-09
3.0236033e-08
5.3521223e-08
7.1658684e-08
7.9885602e-08
7.2837192e-08
5.1163275e-08
1.8676264e-08
-1.9301769e-08
-0.029848995
-0.014999267
-0.026537093
-0.018101303
-0.047773627
-0.03269808