/*--------------------------------*- C++ -*----------------------------------*\
| =========                 |                                                 |
| \\      /  F ield         | OpenFOAM: The Open Source CFD Toolbox           |
|  \\    /   O peration     | Version:  3.0.1                                 |
|   \\  /    A nd           | Web:      www.OpenFOAM.org                      |
|    \\/     M anipulation  |                                                 |
\*---------------------------------------------------------------------------*/
FoamFile
{
    version     2.0;
    format      ascii;
    class       volScalarField;
    location    "0.2";
    object      sigmayz;
}
// * * * * * * * * * * * * * * * * * * * * * * * * * * * * * * * * * * * * * //

dimensions      [0 2 -2 0 0 0 0];

internalField   nonuniform List<scalar> 
3375
(
6.9129632e-08
4.887592e-07
-1.7251215e-06
1.1801604e-06
4.626424e-06
7.7848007e-06
2.0387882e-05
4.3635821e-05
4.6367874e-05
-2.195958e-05
-5.8945172e-05
-2.6280392e-05
-8.9270275e-06
-3.5585426e-06
-1.788707e-06
-2.2336829e-06
-1.3811369e-06
5.4795067e-06
-4.9038871e-06
-4.057382e-06
-2.1170478e-06
-3.5939947e-05
-0.00014198386
-0.00021276907
9.4854079e-05
0.0002376339
5.2010563e-05
1.1070278e-05
3.5919282e-06
-8.1953525e-07
-3.4932901e-07
-6.0108437e-07
1.6842765e-06
-5.4468935e-07
-3.114737e-06
-5.4835659e-06
-1.6958155e-05
-3.9493022e-05
-4.372254e-05
2.0255054e-05
5.438819e-05
2.2579475e-05
6.8318097e-06
2.403133e-06
1.0796029e-06
1.1814602e-07
-1.026031e-08
5.5468898e-07
-5.8097027e-07
-1.9761518e-06
-3.3032616e-06
-6.9638509e-06
-1.1528278e-05
-9.8688138e-06
5.0148356e-06
1.3939504e-05
8.3212593e-06
3.3850288e-06
1.4263775e-06
8.608862e-07
1.6614323e-07
9.1254932e-08
1.2049029e-07
-4.0430529e-07
-1.1000924e-06
-1.7448955e-06
-2.8075536e-06
-3.6279364e-06
-2.4648094e-06
1.4810835e-06
4.022191e-06
3.0797622e-06
1.6078176e-06
8.2266379e-07
4.966391e-07
1.3202163e-07
5.7828305e-08
-8.83e-10
-2.572487e-07
-5.7491844e-07
-8.5532551e-07
-1.1591993e-06
-1.2357982e-06
-6.7742446e-07
5.1902184e-07
1.3115819e-06
1.1990384e-06
7.6268707e-07
4.4735698e-07
2.6693773e-07
8.033575e-08
2.2068643e-08
-4.0316822e-08
-1.5784187e-07
-2.9957974e-07
-4.1695157e-07
-4.9548485e-07
-4.5060689e-07
-2.015766e-07
2.0162063e-07
4.8603228e-07
4.9964127e-07
3.6552338e-07
2.3647802e-07
1.438597e-07
4.4236886e-08
6.2833406e-09
-3.4927063e-08
-9.2143003e-08
-1.5612899e-07
-2.072256e-07
-2.2341909e-07
-1.818145e-07
-6.8994846e-08
8.5314855e-08
1.9685347e-07
2.1954184e-07
1.802721e-07
1.2728291e-07
7.9644448e-08
2.5204784e-08
4.1408107e-09
-1.9604446e-08
-4.9711315e-08
-7.9171695e-08
-1.0250889e-07
-1.0499108e-07
-8.2083544e-08
-3.0648505e-08
3.3880088e-08
8.5618201e-08
1.006152e-07
8.9126104e-08
6.8202157e-08
4.8276052e-08
1.4164416e-08
1.31254e-09
-1.3788676e-08
-2.9706276e-08
-4.2754974e-08
-4.90045e-08
-4.9538947e-08
-3.6490746e-08
-1.1609677e-08
1.6056608e-08
3.8347209e-08
4.8349684e-08
4.4378391e-08
3.5861403e-08
3.0466223e-08
8.5231904e-09
-7.747743e-10
-1.047227e-08
-1.8935734e-08
-2.6450681e-08
-2.5183374e-08
-2.3463139e-08
-1.4703026e-08
-1.9107793e-09
1.1589093e-08
1.82214e-08
2.3943344e-08
2.4044111e-08
2.0823184e-08
1.6358882e-08
5.4935034e-09
6.4829818e-10
-4.1161729e-09
-8.7114843e-09
-1.3493264e-08
-1.6320146e-08
-1.3272839e-08
-8.5671049e-09
-2.7923292e-09
4.3398208e-09
1.0593862e-08
1.235672e-08
1.387817e-08
1.300137e-08
8.3834462e-09
1.5662931e-09
-1.6067625e-10
-1.8634343e-09
-3.914028e-09
-6.1883651e-09
-9.8140109e-09
-8.0286248e-09
-5.6183948e-09
-2.8613393e-09
6.625205e-11
5.2658007e-09
6.5485902e-09
7.0516733e-09
6.3620641e-09
4.6702186e-09
-1.418753e-10
2.2819582e-10
7.8954775e-11
-1.1371675e-09
-2.1294009e-09
-6.380618e-09
-5.4725216e-09
-4.0836481e-09
-2.4072412e-09
-1.1085596e-09
3.0558181e-09
2.9934653e-09
2.6573764e-09
2.3521826e-09
2.0344487e-09
-1.7521179e-09
-3.0147926e-09
-3.8757859e-09
-4.223813e-09
-3.414803e-09
-2.3548549e-09
-1.4542827e-09
-2.7196851e-10
1.2422204e-09
2.674786e-09
3.5623862e-09
3.8021588e-09
3.2982103e-09
1.8917041e-09
-5.3681095e-10
-2.3695078e-06
-2.078237e-06
-1.2404572e-05
-4.9128182e-06
9.7676244e-06
4.2899528e-06
1.1550688e-06
8.362899e-07
8.7497535e-07
-6.2020225e-07
-7.1538925e-08
4.4588976e-06
6.5928358e-06
3.6141852e-07
-5.419577e-06
2.6389111e-06
-9.0618077e-06
5.2828154e-05
2.2197881e-05
-4.6293211e-05
-6.9416363e-06
1.4257633e-06
-2.7149945e-06
-7.1832947e-06
1.6267526e-06
3.8592385e-06
-1.2025632e-05
-2.6481384e-05
7.1498769e-07
2.3870485e-05
1.8876301e-06
1.3737852e-06
1.1447351e-05
4.5902113e-06
-9.1724605e-06
-3.711942e-06
-8.9504898e-07
-8.1470981e-07
-1.0088839e-06
4.7167326e-07
1.754187e-07
-3.805948e-06
-5.7600348e-06
-1.0191862e-07
5.0667571e-06
9.8904406e-07
1.2401321e-06
2.8662822e-06
1.0648476e-06
-2.1504844e-06
-1.4368839e-06
-5.0992603e-07
-2.2202788e-07
-7.2490147e-08
2.3508293e-07
-6.3105523e-08
-1.4627875e-06
-1.9747542e-06
-1.6181209e-07
1.4688642e-06
4.2994646e-07
5.9481051e-07
8.519826e-07
2.794228e-07
-5.6399036e-07
-5.2594896e-07
-2.3850347e-07
-4.7251406e-08
8.0473675e-08
1.1114335e-07
-6.4948456e-08
-5.3802702e-07
-6.9036099e-07
-1.5228739e-07
3.8539501e-07
1.7435238e-07
2.5045064e-07
2.8265075e-07
9.0451993e-08
-1.5934734e-07
-1.8517376e-07
-9.4337704e-08
4.4508235e-09
6.8977773e-08
6.330251e-08
-4.3875753e-08
-2.0819782e-07
-2.6552602e-07
-1.1287523e-07
6.8604459e-08
5.4568683e-08
9.6315889e-08
1.016191e-07
3.5702506e-08
-4.9262138e-08
-5.7678587e-08
-2.8272355e-08
1.2059304e-08
3.826062e-08
3.4201805e-08
-2.3500848e-08
-8.8534427e-08
-1.1262473e-07
-6.8928485e-08
4.165385e-10
1.4743195e-08
3.3696759e-08
3.7984142e-08
1.5851546e-08
-1.1941553e-08
-1.7919513e-08
-5.8168864e-09
1.1176697e-08
1.9932505e-08
1.2892669e-08
-1.1197156e-08
-4.0204842e-08
-5.3458412e-08
-4.0799739e-08
-1.2078801e-08
4.7380807e-09
1.3236175e-08
1.523688e-08
8.4016893e-09
8.265119e-10
-1.6753312e-10
2.1820445e-09
7.3996418e-09
8.9140543e-09
3.3597846e-09
-8.719914e-09
-2.0893407e-08
-2.9508752e-08
-2.6405072e-08
-1.1726651e-08
1.498935e-09
7.1410334e-09
8.2814539e-09
6.6712067e-09
5.2604151e-09
3.1533546e-09
2.7324568e-09
2.9773415e-09
2.9197156e-09
1.7926607e-09
-6.7039005e-09
-1.2441001e-08
-1.7177295e-08
-1.5424402e-08
-7.714193e-09
-6.355743e-10
1.4480749e-09
2.9392606e-09
2.8877512e-09
2.1030203e-09
-5.3890085e-10
1.9410541e-09
2.9891242e-09
2.5216453e-09
5.5667e-10
-2.8789056e-09
-7.1893285e-09
-8.3606843e-09
-6.39682e-09
-3.8179138e-09
-9.6601925e-10
-1.9267235e-09
-1.4324745e-09
-1.1275712e-09
-2.2084386e-09
-9.7283657e-10
1.5583068e-09
3.4227496e-09
2.6528342e-09
-5.4515263e-10
-1.6085946e-09
-3.7954202e-09
-4.0552905e-09
-3.3732413e-09
-2.6238847e-09
-1.044227e-09
-4.2914247e-10
5.4887933e-10
2.7415835e-10
-1.8641807e-09
-3.6663562e-10
-7.8219357e-10
-3.3348537e-10
-1.2160568e-10
-3.2351812e-11
-2.0246975e-09
-1.995444e-09
-2.2383092e-09
-2.5962741e-09
-2.6860449e-09
-1.2707724e-09
7.4584375e-10
1.7559518e-09
9.2039525e-10
-1.4521533e-09
-1.1356688e-10
-1.371553e-09
-1.5137721e-09
-7.123255e-10
1.1255384e-09
-6.4981652e-10
-1.4622023e-09
-1.947639e-09
-2.2520831e-09
-2.7175881e-09
-3.8062301e-09
-2.257972e-09
-6.989265e-10
1.3742207e-09
4.0556731e-09
4.5224323e-09
4.2861749e-09
3.0951825e-09
1.6699411e-09
4.0300137e-10
-6.017819e-10
-1.7179292e-09
-2.362927e-09
-3.0503515e-09
-3.6500526e-09
-2.6300544e-06
-4.3410687e-06
-6.5577363e-06
-2.9523781e-06
3.8101352e-06
-2.2963673e-06
-1.8945413e-05
-4.3747705e-05
-4.8047752e-05
1.9286416e-05
5.7891558e-05
3.1710805e-05
1.4428098e-05
3.2877756e-06
-1.1720721e-06
5.897791e-06
5.3612651e-06
1.1187177e-05
7.7674065e-06
-1.9504206e-05
-8.3420495e-06
3.8302958e-05
0.0001411953
0.00021313903
-8.7034887e-05
-0.00023326321
-6.7699396e-05
-2.13481e-05
7.3158655e-06
8.7478404e-06
2.4120787e-06
3.5129156e-06
5.4018736e-06
2.0236053e-06
-4.4341308e-06
8.4713868e-07
1.5856445e-05
3.9422332e-05
4.4839851e-05
-1.8108873e-05
-5.3359582e-05
-2.7122235e-05
-1.1148046e-05
-1.5041604e-06
1.7770383e-06
9.2949335e-07
1.6366344e-06
2.1513567e-06
1.1216438e-06
-6.1788094e-07
1.2976719e-06
6.2731957e-06
1.1583217e-05
1.0649748e-05
-3.9838282e-06
-1.3608389e-05
-1.005214e-05
-5.399209e-06
-1.8487356e-06
6.0769207e-08
2.9000442e-07
7.05379e-07
9.0719899e-07
6.2633483e-07
2.6061761e-07
9.6391917e-07
2.4729875e-06
3.7217384e-06
2.8909063e-06
-1.0503736e-06
-3.9637852e-06
-3.7814608e-06
-2.5174336e-06
-1.2169021e-06
-2.8849832e-07
5.4142108e-08
2.8639296e-07
4.022118e-07
3.6125405e-07
3.2034909e-07
5.8139406e-07
1.039833e-06
1.3097912e-06
8.9056927e-07
-3.1924182e-07
-1.323517e-06
-1.4995982e-06
-1.183267e-06
-7.0939439e-07
-2.8237235e-07
-2.1310143e-08
1.1106101e-07
1.8962763e-07
2.079874e-07
2.2953595e-07
3.3075368e-07
4.700685e-07
5.0796271e-07
3.0873917e-07
-1.1468689e-07
-4.9953304e-07
-6.3719011e-07
-5.6843785e-07
-3.9352452e-07
-1.9784863e-07
-3.2335741e-08
4.2022687e-08
9.2676963e-08
1.1865156e-07
1.4257739e-07
1.8426532e-07
2.2423869e-07
2.1643739e-07
1.200687e-07
-4.9627467e-08
-2.0830259e-07
-2.870273e-07
-2.797927e-07
-2.1451715e-07
-1.2306249e-07
-2.7200663e-08
1.4096525e-08
4.5335014e-08
6.7079975e-08
8.5149912e-08
1.0284829e-07
1.126456e-07
9.9386892e-08
5.0955947e-08
-2.2397145e-08
-9.2115348e-08
-1.3561034e-07
-1.425985e-07
-1.1842199e-07
-7.6553516e-08
-2.1354595e-08
3.2323253e-09
2.2869934e-08
3.7613081e-08
4.834642e-08
5.7086114e-08
5.8425555e-08
4.7851094e-08
2.3464391e-08
-8.4481737e-09
-4.5758931e-08
-6.8614238e-08
-7.4745709e-08
-6.4465875e-08
-4.5053858e-08
-1.3200502e-08
5.2423495e-10
1.1869033e-08
2.0291658e-08
2.5942319e-08
2.9602985e-08
2.938238e-08
2.3147491e-08
1.0398241e-08
-6.6929323e-09
-2.6128076e-08
-3.6916999e-08
-3.9978422e-08
-3.4954932e-08
-2.400671e-08
-6.6070388e-09
-3.460843e-10
5.5965473e-09
1.003734e-08
1.2915244e-08
1.3865036e-08
1.3799859e-08
1.0688623e-08
3.8096776e-09
-6.9559354e-09
-1.3263087e-08
-1.9292961e-08
-2.153486e-08
-1.9616871e-08
-1.4044935e-08
-4.5933505e-09
-7.1696843e-10
2.6094967e-09
4.780113e-09
5.6978742e-09
6.4320112e-09
6.0934205e-09
4.562151e-09
1.588408e-09
-2.4084341e-09
-6.0820497e-09
-9.6174345e-09
-1.1021734e-08
-1.0555854e-08
-8.6312193e-09
-3.1081314e-09
-8.5830511e-10
7.585474e-10
1.8536748e-09
2.0458145e-09
2.9591895e-09
2.6822347e-09
2.077852e-09
1.2156172e-09
5.4444758e-10
-1.7826625e-09
-4.110841e-09
-5.09645e-09
-5.450796e-09
-5.2790157e-09
-3.6953126e-09
-8.8350956e-10
2.4627014e-09
6.3143365e-09
9.9732965e-09
1.1162912e-08
9.6711673e-09
6.6538027e-09
2.4605642e-09
-2.1274166e-09
-5.7277782e-09
-7.6125978e-09
-8.344382e-09
-7.8496565e-09
-6.0477845e-09
-3.424477e-07
-5.1692285e-06
-3.2048996e-06
6.4828887e-07
-1.3963514e-06
-6.3177214e-06
-1.4677615e-05
-2.9163601e-05
-2.8208549e-05
9.3695591e-06
3.2775067e-05
2.3781728e-05
1.0378444e-05
6.1507261e-06
6.5921025e-06
1.3369105e-06
1.7982655e-05
2.9703171e-06
-1.5424486e-05
-3.0408852e-06
2.194602e-06
5.5088155e-06
4.830789e-05
7.1218939e-05
-1.9740386e-05
-6.5567807e-05
-3.254387e-05
6.4119122e-06
4.5119683e-07
-2.0745005e-05
6.7328745e-07
4.5991697e-06
2.1877366e-06
-1.836621e-06
-1.9568798e-07
3.6773301e-06
1.0607022e-05
2.4115971e-05
2.4730074e-05
-8.1397509e-06
-2.7912522e-05
-1.8534568e-05
-6.4321134e-06
-3.4621e-06
-4.9795628e-06
6.070123e-08
1.3156081e-06
1.2847236e-06
5.6597853e-07
9.376464e-07
2.8070397e-06
6.0044919e-06
1.0098173e-05
8.6213834e-06
-2.7964086e-06
-1.0549083e-05
-9.021881e-06
-4.8059979e-06
-2.792023e-06
-2.0823429e-06
-1.2505445e-07
4.9010937e-07
7.1518888e-07
7.1230478e-07
9.4290148e-07
1.7946946e-06
3.0642073e-06
4.1125969e-06
2.9871858e-06
-1.0069753e-06
-4.0035699e-06
-4.0983276e-06
-2.8356673e-06
-1.8171626e-06
-1.0695474e-06
-1.4799057e-07
1.9406795e-07
3.9215658e-07
5.0283021e-07
6.805309e-07
1.0554168e-06
1.5117953e-06
1.7055745e-06
1.0754515e-06
-3.955778e-07
-1.5964981e-06
-1.8644407e-06
-1.5277905e-06
-1.0691597e-06
-6.1261961e-07
-1.1653469e-07
7.6956325e-08
2.1416071e-07
3.150582e-07
4.3360285e-07
5.9120929e-07
7.4301679e-07
7.3568874e-07
4.1567975e-07
-1.722177e-07
-6.7828522e-07
-8.6990676e-07
-7.9789243e-07
-6.0369061e-07
-3.6492309e-07
-8.4687698e-08
2.8804891e-08
1.1644283e-07
1.8732789e-07
2.5548933e-07
3.2531246e-07
3.7141759e-07
3.344379e-07
1.7324025e-07
-7.8479047e-08
-3.0491812e-07
-4.1806155e-07
-4.1448183e-07
-3.3460806e-07
-2.1659765e-07
-5.6546705e-08
9.0672916e-09
6.3230543e-08
1.0772339e-07
1.4567362e-07
1.7589885e-07
1.8795359e-07
1.5787317e-07
7.7311186e-08
-3.60663e-08
-1.399297e-07
-2.0539192e-07
-2.1585733e-07
-1.8437664e-07
-1.28434e-07
-3.8130423e-08
3.9552083e-10
3.3906272e-08
6.0495714e-08
8.0925934e-08
9.5599979e-08
9.6973681e-08
7.7925579e-08
3.727011e-08
-1.617894e-08
-7.1362448e-08
-1.0592908e-07
-1.1379928e-07
-9.9911373e-08
-7.1218535e-08
-2.2937074e-08
-1.204059e-09
1.7909057e-08
3.36089e-08
4.4784221e-08
5.1794755e-08
5.0008029e-08
3.8485466e-08
1.66249e-08
-1.0930843e-08
-4.1924731e-08
-5.7971345e-08
-6.2430241e-08
-5.5196235e-08
-3.8217121e-08
-1.142286e-08
-5.4669565e-10
9.204171e-09
1.7823707e-08
2.4245379e-08
2.6151187e-08
2.4207435e-08
1.7483142e-08
5.7319447e-09
-9.550106e-09
-2.1251344e-08
-3.0114194e-08
-3.3808959e-08
-3.1314225e-08
-2.3569085e-08
-8.2908101e-09
-2.4544845e-09
3.020049e-09
8.0641912e-09
1.1468231e-08
1.2387007e-08
1.1901809e-08
8.784911e-09
3.2704556e-09
-3.4729323e-09
-8.2421163e-09
-1.4063165e-08
-1.68837e-08
-1.6854423e-08
-1.4789746e-08
-5.6067434e-09
-2.8625716e-09
2.4580625e-10
3.1657925e-09
4.6930732e-09
5.4011885e-09
5.9533523e-09
4.792457e-09
2.5079969e-09
-2.02892e-10
-1.9188515e-09
-5.5661265e-09
-7.8222893e-09
-8.7376055e-09
-8.6026748e-09
-2.9875987e-09
7.3591615e-10
5.2056848e-09
9.721782e-09
1.3657034e-08
1.5150144e-08
1.3456049e-08
9.1381422e-09
2.6020827e-09
-5.041237e-09
-1.0290843e-08
-1.2969214e-08
-1.3405591e-08
-1.122471e-08
-7.2799169e-09
8.1106428e-07
-1.5664765e-06
-1.1922772e-06
-2.1353883e-06
-5.8244727e-06
-7.7756339e-06
-1.0695329e-05
-1.594272e-05
-1.1607922e-05
5.5063082e-06
1.5856347e-05
1.2998756e-05
8.9984911e-06
8.2192388e-06
5.9246865e-06
-1.1011797e-07
2.1535857e-06
-3.0141085e-06
3.8583422e-07
1.3812025e-05
7.7180018e-06
2.0668185e-06
1.914313e-05
1.8585711e-05
-1.2473247e-05
-2.2117383e-05
-8.6518522e-06
-1.3699518e-06
-8.9691651e-06
-8.5209214e-06
-1.7312485e-07
1.3501777e-06
3.9778465e-07
8.0599495e-07
3.7756368e-06
4.8295928e-06
6.8753231e-06
1.1906761e-05
9.2616257e-06
-4.4642191e-06
-1.222385e-05
-8.8077527e-06
-5.2978263e-06
-5.2604957e-06
-4.0161073e-06
-3.6585988e-07
4.8630272e-07
6.7121511e-07
1.0065205e-06
2.0611615e-06
3.1914917e-06
4.6880642e-06
6.3318676e-06
4.2262634e-06
-1.987297e-06
-6.0036023e-06
-5.5555961e-06
-4.0732921e-06
-3.2718474e-06
-2.178462e-06
-3.4631282e-07
1.8949794e-07
5.0196949e-07
8.0377381e-07
1.2944063e-06
1.9788889e-06
2.7359598e-06
3.0884207e-06
1.8741281e-06
-8.1460797e-07
-2.7932872e-06
-3.050444e-06
-2.5509341e-06
-1.9985205e-06
-1.2623106e-06
-2.6511966e-07
7.7935045e-08
3.2256727e-07
5.4279821e-07
8.241707e-07
1.1724196e-06
1.4831417e-06
1.4817143e-06
8.2291801e-07
-3.6064791e-07
-1.3046863e-06
-1.5992073e-06
-1.462807e-06
-1.1637395e-06
-7.387831e-07
-1.8094752e-07
2.8456979e-08
1.9496416e-07
3.437741e-07
5.0628483e-07
6.7026835e-07
7.8131673e-07
7.1556457e-07
3.7135125e-07
-1.690752e-07
-6.2550729e-07
-8.2528052e-07
-8.0664868e-07
-6.5938345e-07
-4.314208e-07
-1.1901609e-07
8.1134136e-09
1.1435157e-07
2.08491e-07
2.9843211e-07
3.7516145e-07
4.0997305e-07
3.507782e-07
1.7253649e-07
-8.0399348e-08
-3.0781689e-07
-4.274206e-07
-4.3952564e-07
-3.7169466e-07
-2.5344032e-07
-7.5581272e-08
-5.30625e-12
6.5418202e-08
1.220161e-07
1.7067973e-07
2.0774285e-07
2.1553641e-07
1.7562125e-07
8.4358839e-08
-3.6805063e-08
-1.5686484e-07
-2.2398981e-07
-2.3746087e-07
-2.0670325e-07
-1.4554345e-07
-3.9719006e-08
-2.647e-11
3.821103e-08
7.13037e-08
9.8055765e-08
1.1270458e-07
1.1216437e-07
8.7003241e-08
3.7553386e-08
-2.6493036e-08
-7.6452279e-08
-1.1716195e-07
-1.287901e-07
-1.1652724e-07
-8.7536645e-08
-2.1729398e-08
-2.0107935e-10
2.1628805e-08
4.1077721e-08
5.6066115e-08
6.158111e-08
5.9080433e-08
4.3653068e-08
1.602642e-08
-1.9271988e-08
-4.0067129e-08
-6.2739492e-08
-7.0701234e-08
-6.5314359e-08
-5.093809e-08
-1.744011e-08
-2.8408191e-09
1.039377e-08
2.1830049e-08
2.9821072e-08
3.4454775e-08
3.186916e-08
2.3595907e-08
1.0150132e-08
-5.612796e-09
-2.7082574e-08
-3.532334e-08
-3.8364302e-08
-3.4770329e-08
-2.528189e-08
-1.13043e-08
-3.237061e-09
4.3477615e-09
1.0945932e-08
1.5085435e-08
1.7262988e-08
1.59135e-08
1.1611225e-08
5.0429371e-09
-1.571774e-09
-1.2873047e-08
-1.768741e-08
-2.0229272e-08
-1.967963e-08
-1.5952365e-08
-6.8329541e-09
-2.6899306e-09
1.489433e-09
4.9019697e-09
6.541656e-09
7.7553793e-09
7.6833758e-09
5.761261e-09
2.7377166e-09
2.4134575e-10
-5.5364423e-09
-8.319381e-09
-1.0150105e-08
-1.0486504e-08
-9.2084107e-09
-3.5402501e-09
1.1493912e-09
5.7552958e-09
9.7809615e-09
1.2911155e-08
1.4145308e-08
1.27698e-08
8.5720283e-09
1.9477677e-09
-5.7034163e-09
-1.1259079e-08
-1.4643922e-08
-1.5154606e-08
-1.2596332e-08
-7.734897e-09
4.2312082e-07
-3.4893957e-09
-8.6605495e-07
-3.2246164e-06
-3.858895e-06
-6.6398265e-06
-1.0144822e-05
-8.2178264e-06
-2.5517955e-06
2.6365515e-06
5.7661169e-06
1.775776e-06
7.2982433e-06
1.2437809e-05
5.2533121e-06
2.1044544e-06
-3.8375302e-06
-2.9479683e-07
9.2820697e-06
2.4706939e-06
6.5262703e-06
1.7198651e-05
4.9015137e-06
-7.585651e-06
-2.6072809e-06
-9.7371325e-07
2.4193393e-05
-6.3193389e-06
-3.5580143e-05
-8.5408794e-06
1.9793491e-07
8.3222707e-09
3.2628313e-07
2.0880098e-06
2.0963429e-06
4.0889214e-06
6.9789961e-06
5.4370564e-06
1.3349047e-06
-1.867708e-06
-3.525282e-06
8.261715e-07
-4.4083709e-06
-9.6300642e-06
-3.4907219e-06
-2.9282714e-07
-4.5113078e-09
3.6618113e-07
1.1139843e-06
1.5627203e-06
2.6959082e-06
4.0540588e-06
3.5458296e-06
1.2667499e-06
-1.1622532e-06
-2.6561116e-06
-1.7834705e-06
-3.0098755e-06
-4.0704093e-06
-1.9640762e-06
-3.2781361e-07
2.0502275e-09
3.0426464e-07
6.7774636e-07
1.0784971e-06
1.6761975e-06
2.2272739e-06
1.9995845e-06
8.5436333e-07
-5.7206716e-07
-1.5721355e-06
-1.6721596e-06
-1.9169058e-06
-1.9595473e-06
-1.1619096e-06
-2.6382504e-07
6.1315881e-09
2.2172772e-07
4.4640468e-07
7.0799334e-07
1.0076264e-06
1.217427e-06
1.0745766e-06
4.9649118e-07
-2.7722905e-07
-8.6569287e-07
-1.0863017e-06
-1.1505127e-06
-1.0486993e-06
-6.8294671e-07
-1.8557479e-07
-3.0699898e-09
1.476896e-07
2.914978e-07
4.4377349e-07
5.923824e-07
6.6476197e-07
5.6673387e-07
2.658817e-07
-1.3624712e-07
-4.6741605e-07
-6.3235044e-07
-6.6455985e-07
-5.8537228e-07
-4.0100446e-07
-1.1814801e-07
-5.3288744e-09
9.3279526e-08
1.8400859e-07
2.7145718e-07
3.4193849e-07
3.6222471e-07
2.9703765e-07
1.3758001e-07
-7.0976369e-08
-2.5283497e-07
-3.5420194e-07
-3.7729654e-07
-3.3290535e-07
-2.3447769e-07
-7.2229576e-08
-5.2600861e-09
5.5708719e-08
1.116419e-07
1.6069863e-07
1.956117e-07
1.9846098e-07
1.5708473e-07
7.0814546e-08
-3.7714345e-08
-1.4100074e-07
-1.9703272e-07
-2.1222829e-07
-1.8819709e-07
-1.3306835e-07
-3.7814345e-08
-2.1857699e-09
3.3489496e-08
6.679748e-08
9.4424091e-08
1.0949088e-07
1.0789991e-07
8.1641652e-08
3.3132687e-08
-2.6462259e-08
-7.300881e-08
-1.07143e-07
-1.1833155e-07
-1.0735877e-07
-8.0709882e-08
-2.1305421e-08
-1.0706462e-09
2.0050195e-08
3.960751e-08
5.5362511e-08
6.1693089e-08
5.8864867e-08
4.3154427e-08
1.6308645e-08
-1.6957275e-08
-3.6811299e-08
-5.7793231e-08
-6.5307095e-08
-6.0803404e-08
-4.874148e-08
-1.709849e-08
-3.0559301e-09
1.0815906e-08
2.2739489e-08
3.1334305e-08
3.5831015e-08
3.3162135e-08
2.4492035e-08
1.0728225e-08
-4.6908765e-09
-2.3963336e-08
-3.3380741e-08
-3.6476305e-08
-3.331357e-08
-2.4821837e-08
-1.0410535e-08
-1.6165715e-09
6.7344202e-09
1.3365483e-08
1.7667465e-08
1.9621043e-08
1.7431506e-08
1.2134489e-08
4.6146696e-09
-3.0327503e-09
-1.3933932e-08
-1.8709437e-08
-2.0649021e-08
-1.940844e-08
-1.5004971e-08
-5.4784192e-09
-1.8058118e-10
4.1322223e-09
7.131921e-09
8.8965627e-09
9.774823e-09
7.9809443e-09
4.9948004e-09
1.2500011e-09
-2.4987533e-09
-8.590415e-09
-1.0302595e-08
-1.1111495e-08
-1.0637021e-08
-8.2960537e-09
-3.9455203e-09
1.0374469e-09
4.9254035e-09
7.6078937e-09
8.8208977e-09
9.151872e-09
7.9636655e-09
5.0310336e-09
6.45877e-10
-4.2240786e-09
-9.0035259e-09
-1.2145016e-08
-1.3191149e-08
-1.1788027e-08
-7.8957425e-09
-2.6881905e-06
-1.5787367e-06
2.7471673e-07
4.5307644e-07
-7.4445338e-07
-3.9840499e-06
-7.0556088e-06
-5.2253594e-06
-8.52564e-07
2.344628e-06
3.9160023e-06
1.92113e-06
4.8902317e-06
7.0810253e-06
7.8947495e-07
1.3247137e-05
4.4314441e-06
-2.1271312e-06
-4.0895577e-06
-2.5567301e-06
3.1684312e-06
9.9987683e-06
5.6354567e-06
-2.8547269e-06
-2.89187e-06
-3.232631e-06
1.6829051e-06
-9.9611397e-06
-1.669136e-05
6.9120676e-06
2.9361969e-06
1.4580836e-06
-4.9868775e-07
-9.5153282e-07
-2.6196339e-07
2.2811465e-06
4.888076e-06
3.4788244e-06
2.305705e-07
-1.7724828e-06
-2.5728104e-06
-4.202122e-07
-3.1074117e-06
-5.2003621e-06
3.1250497e-07
6.1543488e-07
5.0512418e-07
-9.9310455e-08
-8.0673577e-08
4.6199253e-07
1.6115321e-06
2.6973331e-06
2.0832527e-06
5.0404381e-07
-8.815729e-07
-1.5231922e-06
-9.0847178e-07
-1.7288626e-06
-2.5063911e-06
-7.588892e-07
-3.492295e-08
1.327476e-07
7.111974e-08
1.857563e-07
5.2448144e-07
1.067982e-06
1.4865133e-06
1.2076036e-06
3.9752341e-07
-4.1739108e-07
-8.9050073e-07
-8.8250781e-07
-1.1185668e-06
-1.2781445e-06
-6.6616553e-07
-1.5165979e-07
2.0060061e-08
1.0275899e-07
2.2074398e-07
4.2237491e-07
6.7638261e-07
8.3056212e-07
6.9031162e-07
2.6977543e-07
-2.0307541e-07
-5.2040266e-07
-6.3449199e-07
-7.1258991e-07
-6.9877391e-07
-4.448377e-07
-1.2616709e-07
-4.218171e-09
8.5808152e-08
1.801104e-07
2.9519848e-07
4.1635128e-07
4.7041122e-07
3.7986767e-07
1.5910209e-07
-1.0379637e-07
-3.0270426e-07
-4.0469231e-07
-4.3849574e-07
-4.0534584e-07
-2.8260914e-07
-8.402594e-08
-6.0416502e-09
6.1750208e-08
1.2715815e-07
1.9393977e-07
2.503703e-07
2.6360357e-07
2.0788126e-07
8.7888482e-08
-5.8052213e-08
-1.751873e-07
-2.4238636e-07
-2.61468e-07
-2.3694815e-07
-1.7094185e-07
-5.0832755e-08
-3.9190446e-09
4.0371117e-08
8.2687575e-08
1.2172722e-07
1.4770844e-07
1.4833547e-07
1.135415e-07
4.5664226e-08
-3.5994889e-08
-9.9892775e-08
-1.4035834e-07
-1.5257863e-07
-1.3789282e-07
-1.0135697e-07
-3.4613803e-08
-4.3328601e-09
2.4101425e-08
5.0731235e-08
7.3232782e-08
8.6513287e-08
8.4943605e-08
6.4065856e-08
2.653983e-08
-1.6991938e-08
-5.9560206e-08
-8.0936207e-08
-8.7329486e-08
-7.8130488e-08
-5.636751e-08
-2.2493675e-08
-3.6548521e-09
1.4436211e-08
3.075827e-08
4.3472297e-08
5.0734848e-08
4.8350504e-08
3.6104334e-08
1.5874109e-08
-6.6150055e-09
-3.3608674e-08
-4.6193408e-08
-5.0179711e-08
-4.5475782e-08
-3.325921e-08
-1.1116295e-08
-1.3365924e-09
9.508243e-09
1.9213409e-08
2.6479749e-08
2.9160536e-08
2.6659799e-08
1.8822874e-08
6.8770282e-09
-6.4393545e-09
-1.5496259e-08
-2.5413344e-08
-2.924108e-08
-2.8143847e-08
-2.306655e-08
-6.8216313e-09
-1.1904723e-10
6.5514746e-09
1.191902e-08
1.5717511e-08
1.6549042e-08
1.456626e-08
9.7336952e-09
2.8126886e-09
-5.669021e-09
-9.886892e-09
-1.5047647e-08
-1.7065838e-08
-1.6212446e-08
-1.3169211e-08
-3.0328586e-09
9.8671905e-10
4.2284176e-09
6.5305939e-09
8.3177342e-09
8.4165827e-09
6.6039143e-09
3.9406398e-09
3.1602328e-10
-5.0823776e-09
-6.9293972e-09
-8.5965572e-09
-9.4119983e-09
-8.7216687e-09
-6.4764071e-09
-1.9385917e-09
1.3163657e-09
3.850389e-09
5.4883945e-09
5.8425143e-09
5.5810138e-09
4.6236846e-09
2.5609243e-09
-3.5667808e-10
-3.4757861e-09
-6.6759899e-09
-8.6995355e-09
-9.264126e-09
-8.1410922e-09
-5.625014e-09
-2.0683505e-06
-1.9432717e-06
1.9333694e-06
4.0396322e-06
2.4895566e-06
-1.7062521e-06
-5.6875456e-06
-3.3892173e-06
-1.3185867e-08
3.6025556e-06
3.7274052e-06
-1.8212061e-06
-2.1676054e-06
2.7353259e-06
6.5147706e-07
1.0551797e-05
9.3460694e-06
-8.5272777e-06
-1.5579855e-05
-8.0775688e-06
1.2120642e-06
1.4372644e-05
6.8406649e-06
-3.3836873e-07
-1.2203122e-05
-1.3679352e-05
1.0109582e-05
1.412467e-05
-9.8115996e-06
9.1127119e-07
2.1253479e-06
1.7518575e-06
-1.9019849e-06
-3.8861899e-06
-2.6275368e-06
9.2819585e-07
4.4645907e-06
2.5043511e-06
-1.6632594e-07
-3.1397986e-06
-3.0645196e-06
2.2777189e-06
2.6625217e-06
-2.0203033e-06
-1.8614653e-07
4.7627036e-07
7.1146268e-07
-4.5333346e-07
-1.2684037e-06
-7.6751578e-07
5.9205508e-07
1.8001835e-06
1.1698735e-06
5.466746e-08
-9.4397074e-07
-9.2084697e-07
3.2491117e-07
2.8773381e-07
-8.0485541e-07
-3.4150583e-07
4.1646345e-08
1.9494595e-07
-9.9344419e-08
-2.9206942e-07
-9.2148588e-08
4.4337105e-07
8.5295833e-07
6.0974567e-07
9.5776372e-08
-3.476554e-07
-4.2364504e-07
-1.6147995e-07
-1.9065619e-07
-4.403794e-07
-2.635278e-07
-5.0527812e-08
3.3746536e-08
1.2908975e-09
-9.435275e-09
1.0153721e-07
3.123431e-07
4.4516312e-07
3.4357735e-07
8.3122579e-08
-1.5812397e-07
-2.488295e-07
-2.2344714e-07
-2.3195854e-07
-2.6618525e-07
-1.8046079e-07
-5.1445113e-08
3.9310194e-09
2.8209085e-08
5.7740245e-08
1.2055338e-07
2.0898953e-07
2.5386666e-07
1.9121284e-07
5.5547346e-08
-8.3174996e-08
-1.5645579e-07
-1.7791565e-07
-1.8126021e-07
-1.7173892e-07
-1.219789e-07
-3.8650529e-08
-9.2638958e-10
2.8420434e-08
5.8782599e-08
9.5725025e-08
1.3373221e-07
1.4327894e-07
1.0594933e-07
3.3159584e-08
-4.4640759e-08
-9.6637218e-08
-1.1882442e-07
-1.2174975e-07
-1.092249e-07
-7.9584697e-08
-2.6558878e-08
-1.2640207e-09
2.1758454e-08
4.3917612e-08
6.5548034e-08
8.2993502e-08
8.2518338e-08
5.9595568e-08
1.9368186e-08
-2.3978009e-08
-5.5906289e-08
-7.2823698e-08
-7.5934344e-08
-6.8738209e-08
-5.3459915e-08
-2.1567125e-08
-2.3199793e-09
1.4586338e-08
3.013754e-08
4.3673629e-08
4.9054156e-08
4.7753891e-08
3.4308159e-08
1.2069365e-08
-1.1361212e-08
-3.2470331e-08
-4.3095411e-08
-4.5881549e-08
-4.170389e-08
-3.1078229e-08
-1.4319245e-08
-2.1762382e-09
9.1860686e-09
1.9260979e-08
2.7184443e-08
2.9158546e-08
2.7898964e-08
2.0065451e-08
7.6821166e-09
-5.0537532e-09
-1.8833937e-08
-2.5940946e-08
-2.8447126e-08
-2.6056464e-08
-1.8624547e-08
-5.8789912e-09
-3.9920912e-10
5.8482407e-09
1.1287344e-08
1.5101359e-08
1.842435e-08
1.6430555e-08
1.1583015e-08
4.5526103e-09
-3.7486502e-09
-1.0020701e-08
-1.5488835e-08
-1.7819695e-08
-1.7334291e-08
-1.4540363e-08
-3.4830588e-09
-1.413545e-11
3.4760018e-09
6.4934344e-09
8.7190249e-09
1.0054952e-08
8.8070001e-09
6.3325349e-09
2.4087364e-09
-3.1301201e-09
-6.7400545e-09
-9.5652268e-09
-1.0745351e-08
-9.8743579e-09
-7.5485398e-09
-1.2939858e-09
1.007473e-10
1.4989876e-09
2.927244e-09
4.2075295e-09
4.6958561e-09
4.2128402e-09
3.2308598e-09
1.0582617e-09
-2.3798466e-09
-4.1489478e-09
-5.3477747e-09
-5.7386419e-09
-4.7376184e-09
-2.9764032e-09
8.5889235e-10
1.5609244e-09
2.6065863e-09
3.6185234e-09
4.0019388e-09
3.5981841e-09
2.7488528e-09
9.2686155e-10
-1.3923212e-09
-3.3783862e-09
-4.4732127e-09
-4.8766742e-09
-4.0101717e-09
-2.4577943e-09
-8.9513193e-10
2.124969e-06
-1.921784e-07
5.8285018e-08
2.5476151e-06
5.8544734e-06
3.9190904e-07
-3.8902091e-06
-3.6553687e-07
8.2614455e-07
9.577962e-07
-1.7493693e-07
-4.3989388e-06
-4.8735116e-06
-4.3576777e-07
2.4113267e-06
-9.0570237e-06
1.9148854e-06
3.2887946e-06
-4.5029804e-06
-2.7684909e-05
-8.3414592e-07
2.0628666e-05
1.5129584e-06
4.3289174e-07
-3.9871073e-07
-2.7791869e-06
1.3846775e-05
1.7158695e-05
-2.129389e-06
-1.2677275e-05
-2.0639064e-06
1.6015115e-07
2.9682347e-08
-2.1985489e-06
-5.3898124e-06
-3.8366957e-07
3.5805116e-06
3.6402733e-07
-5.4739527e-07
-6.2981878e-07
2.1417166e-07
3.9936692e-06
4.3277136e-06
6.7871853e-08
-2.4736095e-06
-5.3477642e-07
6.112892e-08
-1.1973465e-07
-9.4769264e-07
-1.6919853e-06
-1.8678824e-07
1.0222382e-06
7.6011351e-08
-3.7359564e-07
-4.1361975e-07
1.5749098e-07
1.2628936e-06
1.3830588e-06
4.9938982e-07
-4.0637978e-07
-8.3963418e-08
1.9523082e-08
-8.5648815e-08
-3.3822481e-07
-4.7947088e-07
-5.0263495e-08
2.6533208e-07
1.6579953e-09
-2.1380134e-07
-2.3498595e-07
1.5385826e-08
4.0095981e-07
4.9823865e-07
3.0961998e-07
1.9860981e-08
1.0046297e-08
8.6020967e-09
-4.1667162e-08
-1.0525618e-07
-1.1499786e-07
6.2710467e-09
8.1221251e-08
-6.3042584e-09
-1.0948065e-07
-1.302478e-07
-3.334e-08
1.1184009e-07
1.7775191e-07
1.4295542e-07
6.1392985e-08
1.8871248e-08
9.0143392e-09
-9.5088208e-09
-2.729078e-08
-1.7493149e-08
1.7904099e-08
3.5839194e-08
-3.4037488e-09
-5.3284889e-08
-7.3088775e-08
-3.3675191e-08
2.0495882e-08
5.5215991e-08
5.7376102e-08
3.6854079e-08
9.0525236e-09
6.2040056e-09
1.1823993e-09
-8.45034e-10
5.202265e-09
1.7885074e-08
1.8135689e-08
-3.7114802e-10
-2.3450451e-08
-3.4912856e-08
-2.3165357e-08
-2.0501295e-09
1.5176175e-08
2.0242346e-08
1.3284608e-08
2.4122899e-09
4.4875963e-09
4.8860298e-09
6.0051748e-09
8.2613605e-09
1.4974369e-08
1.1509072e-08
1.0643955e-09
-1.0073156e-08
-1.508372e-08
-1.3277257e-08
-4.5304492e-09
2.4942205e-09
3.583585e-09
-8.507609e-10
-6.7450594e-09
-7.4955428e-10
3.7311786e-09
7.4863808e-09
1.07173e-08
7.9682585e-09
6.2772403e-09
8.4410897e-10
-4.4941347e-09
-5.5152049e-09
-8.6723532e-09
-4.4545485e-09
-1.5309906e-09
-2.4946985e-10
2.026094e-09
-6.3806445e-09
-1.8218936e-09
2.0531246e-09
5.3888144e-09
8.5620749e-09
4.5324825e-09
3.9123169e-09
1.8344058e-09
-8.562292e-10
-2.1901905e-09
-5.3192354e-09
-4.7177747e-09
-3.7599457e-09
-2.1738639e-09
1.8239818e-09
9.4708935e-10
1.3558221e-09
1.725263e-09
2.0418324e-09
2.262786e-09
5.2133291e-09
4.3501655e-09
3.1916792e-09
1.2739809e-09
-1.163028e-09
-2.1465929e-09
-3.7113702e-09
-4.3769802e-09
-4.4588453e-09
-4.7515248e-09
1.8577762e-10
-1.628233e-10
-2.63209e-10
1.4635548e-10
6.476687e-10
2.6282931e-09
3.0629335e-09
3.1142697e-09
2.0176544e-09
2.212858e-10
-1.125482e-09
-2.509553e-09
-2.8263858e-09
-2.3314095e-09
-2.2744857e-09
-1.5801755e-10
-1.0530364e-09
-1.3599982e-09
-7.818631e-10
8.016655e-11
1.0160145e-09
2.030541e-09
2.2896385e-09
1.5294772e-09
3.8518182e-10
-2.4408563e-10
-1.1530434e-09
-9.7390273e-10
-2.9725113e-10
-3.4372435e-10
4.3306822e-09
2.5798507e-09
1.8931344e-09
1.7677087e-09
1.4637202e-09
1.1962407e-09
-3.1025399e-11
-1.6212742e-09
-2.8987489e-09
-3.6097131e-09
-2.3211042e-09
-2.9135219e-10
1.9522387e-09
3.4759998e-09
3.7457103e-09
2.2054496e-06
6.3596117e-08
-1.3035999e-06
-1.2193448e-07
4.2084278e-07
1.6671586e-06
4.1039587e-06