/*--------------------------------*- C++ -*----------------------------------*\
| =========                 |                                                 |
| \\      /  F ield         | OpenFOAM: The Open Source CFD Toolbox           |
|  \\    /   O peration     | Version:  3.0.1                                 |
|   \\  /    A nd           | Web:      www.OpenFOAM.org                      |
|    \\/     M anipulation  |                                                 |
\*---------------------------------------------------------------------------*/
FoamFile
{
    version     2.0;
    format      ascii;
    class       volScalarField;
    location    "0.2";
    object      sigmayy;
}
// * * * * * * * * * * * * * * * * * * * * * * * * * * * * * * * * * * * * * //

dimensions      [0 2 -2 0 0 0 0];

internalField   nonuniform List<scalar> 
3375
(
-6.0915767e-06
3.5505668e-06
-0.00029023762
-2.3806662e-07
0.00027746682
-4.1354673e-05
-1.6832376e-05
3.090775e-05
2.8682034e-05
-2.2224341e-05
-4.3158507e-05
-9.2385861e-05
4.3362211e-05
0.00012365647
6.5736293e-06
3.3101121e-06
1.1702951e-05
4.0408522e-05
-3.1697308e-07
-4.3035161e-05
-1.0864961e-05
1.220364e-05
3.5875115e-05
3.8332336e-05
-1.784055e-05
-4.3644318e-05
-4.8163471e-06
-4.5434125e-06
-1.6241858e-05
-3.6535943e-07
3.340631e-06
1.265646e-05
4.0159162e-05
5.2654952e-07
-3.8412375e-05
-4.0857261e-06
1.7886578e-05
3.9808612e-05
4.0817254e-05
-1.5888566e-05
-4.4607944e-05
-1.0275677e-05
-1.385057e-05
-2.3988053e-05
-4.4963911e-06
1.2036878e-06
5.778666e-06
1.008037e-05
8.0655352e-07
-7.4120446e-06
9.5342252e-07
1.170327e-05
2.1506755e-05
1.8583201e-05
-6.0122667e-06
-2.0869999e-05
-1.2847373e-05
-1.0161377e-05
-9.9406466e-06
-3.6413067e-06
-5.653151e-08
2.1679889e-06
3.1663186e-06
1.011068e-06
-5.9290043e-07
2.3240261e-06
6.8937585e-06
1.0184436e-05
7.698505e-06
-1.8526685e-06
-8.5009585e-06
-7.6914684e-06
-6.5878363e-06
-5.6300956e-06
-2.8114502e-06
-5.1244468e-07
6.8764774e-07
1.2410369e-06
9.1636204e-07
8.3451512e-07
2.096e-06
3.899637e-06
4.8492194e-06
3.3687069e-06
-4.8934453e-07
-3.5354276e-06
-4.1737561e-06
-3.9730597e-06
-3.3599775e-06
-2.0220367e-06
-5.6226529e-07
1.3526424e-07
5.5806182e-07
7.0136608e-07
9.2865111e-07
1.5339597e-06
2.2279307e-06
2.4297694e-06
1.6050634e-06
-8.4205048e-08
-1.572809e-06
-2.2331619e-06
-2.3386541e-06
-2.0548774e-06
-1.391596e-06
-4.7484102e-07
-4.6185615e-08
2.75598e-07
4.9542044e-07
7.2458707e-07
1.0356338e-06
1.3016064e-06
1.2891222e-06
8.2730905e-07
1.8660153e-08
-7.562643e-07
-1.2192214e-06
-1.3723834e-06
-1.2636838e-06
-9.2834066e-07
-3.5777626e-07
-9.0742872e-08
1.4089133e-07
3.3155002e-07
5.0702333e-07
6.7662614e-07
7.8027139e-07
7.2535678e-07
4.5857351e-07
3.6662139e-08
-3.8869116e-07
-6.8464683e-07
-8.1497695e-07
-7.8401532e-07
-6.1225262e-07
-2.5504314e-07
-8.5795439e-08
7.55701e-08
2.1857388e-07
3.4140014e-07
4.3780942e-07
4.7828379e-07
4.2651092e-07
2.6708909e-07
3.4529066e-08
-2.0940284e-07
-3.9450751e-07
-4.9124436e-07
-4.9092317e-07
-4.031457e-07
-1.7536125e-07
-6.7547121e-08
4.3005871e-08
1.4329133e-07
2.2683234e-07
2.8528401e-07
3.0072071e-07
2.6002641e-07
1.6301107e-07
2.7566741e-08
-1.1889553e-07
-2.3555725e-07
-3.0243279e-07
-3.1094477e-07
-2.6452801e-07
-1.202609e-07
-4.9484912e-08
2.6358612e-08
9.5871557e-08
1.5290638e-07
1.8775167e-07
1.9478311e-07
1.6531612e-07
1.0366036e-07
1.861755e-08
-7.0839354e-08
-1.4621046e-07
-1.903308e-07
-1.9945388e-07
-1.7430585e-07
-8.4541392e-08
-3.7007644e-08
1.6067271e-08
6.5591227e-08
1.0599701e-07
1.3001805e-07
1.3299151e-07
1.1194423e-07
7.0236776e-08
1.3330873e-08
-4.5554654e-08
-9.5010493e-08
-1.2550991e-07
-1.3352093e-07
-1.1835133e-07
-6.3276493e-08
-2.6943207e-08
1.3410675e-08
5.1018821e-08
8.058634e-08
9.6838579e-08
9.6491714e-08
8.0031971e-08
4.9462089e-08
1.0352357e-08
-3.1235856e-08
-6.6530366e-08
-9.0156115e-08
-9.7641978e-08
-8.8168408e-08
-5.3740932e-08
-2.1722753e-08
1.2912836e-08
4.5004349e-08
6.8822436e-08
8.1630032e-08
7.960687e-08
6.5676811e-08
4.0354486e-08
9.4243327e-09
-2.4636565e-08
-5.4356175e-08
-7.5456389e-08
-8.253582e-08
-7.497255e-08
-9.6547716e-06
7.6209528e-06
1.7982994e-05
-4.3070434e-05
-2.1103446e-05
-1.0349263e-05
-5.9464616e-05
-0.0004891543
-0.0011660614
0.00050340385
0.0011555966
1.0313509e-05
8.1079879e-05
3.0783367e-05
-7.3297947e-06
5.9643752e-06
8.7192518e-06
7.923137e-06
-3.7245262e-07
-1.6967913e-05
-1.7731657e-05
1.6156341e-05
0.00012155103
0.00017308317
-7.5115603e-05
-0.00019009928
-3.7757313e-05
5.8901665e-06
-1.2669737e-06
9.839311e-07
4.7309448e-06
8.9930828e-06
9.0044986e-06
1.5754139e-06
-1.1164079e-05
-4.6187925e-06
3.0538529e-05
0.0001194643
0.00016457671
-6.9503732e-05
-0.00018062632
-4.5584713e-05
-1.2430199e-05
-1.1230951e-05
-2.887208e-06
1.1171274e-06
4.4815315e-06
4.6124923e-06
4.2562362e-07
-2.5629367e-06
3.1180745e-06
1.7663149e-05
3.9185955e-05
3.9712712e-05
-1.5366682e-05
-4.6051792e-05
-2.2923707e-05
-1.1219731e-05
-8.3483262e-06
-3.7148176e-06
-2.4623809e-07
1.6857734e-06
2.0376175e-06
9.7396827e-07
5.6914522e-07
3.406679e-06
9.0551336e-06
1.4399299e-05
1.1676057e-05
-3.7108417e-06
-1.3686949e-05
-1.0504825e-05
-7.2066616e-06
-5.528193e-06
-3.0375239e-06
-6.3332942e-07
5.0110471e-07
9.6700431e-07
9.4126488e-07
1.2140417e-06
2.6024584e-06
4.6832715e-06
5.9658197e-06
4.1985587e-06
-9.3143949e-07
-4.7486465e-06
-4.9875733e-06
-4.2561282e-06
-3.4547664e-06
-2.1615644e-06
-6.3223009e-07
5.8889914e-08
4.8580771e-07
7.2928088e-07
1.0800628e-06
1.7588238e-06
2.5246785e-06
2.7575472e-06
1.7967088e-06
-2.1605559e-07
-1.902552e-06
-2.4944712e-06
-2.4636509e-06
-2.1207756e-06
-1.457266e-06
-5.0544536e-07
-7.5761151e-08
2.574456e-07
5.1571123e-07
7.9485918e-07
1.1338952e-06
1.4182938e-06
1.3966962e-06
8.7645757e-07
-2.9308037e-08
-8.6148e-07
-1.3139957e-06
-1.4307132e-06
-1.2997306e-06
-9.602534e-07
-3.706865e-07
-9.9286682e-08
1.3978308e-07
3.4564754e-07
5.4037282e-07
7.2132581e-07
8.2755263e-07
7.6316362e-07
4.717917e-07
1.7312318e-08
-4.276531e-07
-7.2234469e-07
-8.4151033e-07
-8.012001e-07
-6.2647281e-07
-2.6048835e-07
-8.8769874e-08
7.5844438e-08
2.250407e-07
3.5686704e-07
4.5805956e-07
4.9861102e-07
4.4144277e-07
2.7189734e-07
2.6672291e-08
-2.2411803e-07
-4.1009076e-07
-5.0349765e-07
-4.9890924e-07
-4.0880294e-07
-1.7822544e-07
-7.0110064e-08
4.1597917e-08
1.452263e-07
2.3316051e-07
2.939995e-07
3.095444e-07
2.6722684e-07
1.6562002e-07
2.3564127e-08
-1.2413206e-07
-2.4177396e-07
-3.0807281e-07
-3.1495302e-07
-2.6735571e-07
-1.2035961e-07
-4.9654702e-08
2.6081876e-08
9.6945647e-08
1.5549268e-07
1.9274988e-07
1.987187e-07
1.6846056e-07
1.0424647e-07
1.6159165e-08
-7.4893098e-08
-1.4986481e-07
-1.9435652e-07
-2.0247621e-07
-1.7517307e-07
-8.3338437e-08
-3.5178417e-08
1.7824771e-08
6.7641864e-08
1.0820009e-07
1.3212187e-07
1.3407032e-07
1.1235094e-07
6.9563261e-08
1.1600179e-08
-4.8265603e-08
-9.7377244e-08
-1.2815171e-07
-1.3547834e-07
-1.1838119e-07
-6.1985648e-08
-2.556665e-08
1.4706677e-08
5.2163772e-08
8.153565e-08
9.7620697e-08
9.7403811e-08
8.0748367e-08
4.986387e-08
9.7816843e-09
-3.2188476e-08
-6.8099511e-08
-9.1795543e-08
-9.8669345e-08
-8.7651353e-08
-5.2283622e-08
-2.0734738e-08
1.3744664e-08
4.5470926e-08
6.928554e-08
8.1899208e-08
8.0541071e-08
6.6573273e-08
4.1227572e-08
9.1673925e-09
-2.5100732e-08
-5.5256782e-08
-7.612596e-08
-8.2707756e-08
-7.395789e-08
5.4772905e-06
-0.0001200733
-1.3950099e-05
0.00011744304
1.1044937e-05
-8.3345108e-06
-1.744569e-05
2.0921556e-05
-1.5423268e-06
-1.7528266e-05
-1.9753213e-05
-0.00011256984
-6.0638189e-05
0.00012553168
9.1122307e-05
4.0067407e-06
1.9986194e-05
-7.5223037e-07
-1.7954096e-05
-6.4081532e-06
-3.6889966e-06
7.5511606e-06
3.7642112e-05
4.4883728e-05
-1.9862589e-05
-4.7676626e-05
4.2610533e-06
1.6686444e-05
-1.7555577e-05
-2.0767749e-05
1.3889207e-06
1.8390167e-05
2.3262528e-06
-1.5358997e-05
-5.2840815e-06
1.9174879e-06
1.6471248e-05
4.1726702e-05
4.6162909e-05
-1.7277632e-05
-4.7448649e-05
-1.123615e-06
5.6777066e-06
-2.4872646e-05
-2.2369509e-05
-2.8895831e-07
4.5755092e-06
1.7809845e-06
-2.472854e-06
-7.2720183e-07
3.890494e-06
1.2329611e-05
2.210735e-05
1.9362955e-05
-6.4045405e-06
-2.0993616e-05
-9.9119932e-06
-5.8132073e-06
-1.002039e-05
-7.5731864e-06
-8.5479804e-07
1.1856485e-06
1.064098e-06
2.5629759e-07
1.0121562e-06
3.4578985e-06
7.3009077e-06
1.0361989e-05
7.7560144e-06
-2.0340474e-06
-8.4385046e-06
-6.585632e-06
-5.1363419e-06
-5.5589764e-06
-3.9478838e-06
-8.5928794e-07
2.2071313e-07
6.0328704e-07
7.2021447e-07
1.2736827e-06
2.5108268e-06
4.0943921e-06
4.8995549e-06
3.3154229e-06
-5.7475637e-07
-3.4776712e-06
-3.7708796e-06
-3.4752916e-06
-3.269828e-06
-2.3334738e-06
-7.0679157e-07
-6.1503205e-08
3.4386168e-07
6.3713173e-07
1.0561778e-06
1.6822144e-06
2.307194e-06
2.4340423e-06
1.5587863e-06
-1.3018201e-07
-1.5374043e-06
-2.0795294e-06
-2.147918e-06
-1.9811518e-06
-1.4572011e-06
-5.2504911e-07
-1.2309514e-07
1.981709e-07
4.6965624e-07
7.6425104e-07
1.0838133e-06
1.327084e-06
1.2836157e-06
8.0131635e-07
-4.7718733e-09
-7.3691304e-07
-1.1549796e-06
-1.2926661e-06
-1.2173252e-06
-9.3577899e-07
-3.7365231e-07
-1.1765477e-07
1.1323567e-07
3.2082577e-07
5.1773597e-07
6.9082362e-07
7.852409e-07
7.1800293e-07
4.4409856e-07
2.6475299e-08
-3.7982727e-07
-6.5504231e-07
-7.769825e-07
-7.5543998e-07
-6.0528223e-07
-2.5870244e-07
-9.6150769e-08
6.2144187e-08
2.096925e-07
3.4027599e-07
4.3940864e-07
4.7749345e-07
4.2174039e-07
2.6111257e-07
3.144447e-08
-2.0387242e-07
-3.7941543e-07
-4.7177484e-07
-4.7390909e-07
-3.9398801e-07
-1.743636e-07
-7.1480788e-08
3.623581e-08
1.3719484e-07
2.2347709e-07
2.8096097e-07
2.9677252e-07
2.5585612e-07
1.5932185e-07
2.4193088e-08
-1.1376237e-07
-2.2670797e-07
-2.9121436e-07
-3.0054692e-07
-2.5810527e-07
-1.1754404e-07
-5.0210753e-08
2.2920715e-08
9.2162373e-08
1.4960159e-07
1.848682e-07
1.9162851e-07
1.6299197e-07
1.011858e-07
1.6336441e-08
-6.861606e-08
-1.4158495e-07
-1.8568077e-07
-1.94749e-07
-1.6986557e-07
-8.1290993e-08
-3.4948003e-08
1.6460396e-08
6.4989075e-08
1.0438614e-07
1.2742386e-07
1.3014157e-07
1.0972054e-07
6.8407343e-08
1.2613359e-08
-4.5024906e-08
-9.2907169e-08
-1.2347801e-07
-1.3096393e-07
-1.1490981e-07
-5.9910603e-08
-2.4878211e-08
1.4230021e-08
5.0334583e-08
7.8396055e-08
9.459166e-08
9.516123e-08
7.9454217e-08
4.9615224e-08
1.0659356e-08
-3.0433245e-08
-6.5736424e-08
-8.913828e-08
-9.5760378e-08
-8.5116365e-08
-4.9940692e-08
-1.9612655e-08
1.3893534e-08
4.4106396e-08
6.6341836e-08
7.9713046e-08
7.8972944e-08
6.5543893e-08
4.103195e-08
9.6920544e-09
-2.4527595e-08
-5.4019764e-08
-7.4273435e-08
-8.0372304e-08
-7.1671031e-08
4.7720984e-06
8.7747702e-06
-5.2682731e-06
-4.2877326e-06
-4.4627061e-05
-1.7053121e-05
2.5916217e-05
-6.404144e-05
-8.3247692e-05
4.3368847e-05
9.0386524e-05
-3.4819417e-05
-2.0342533e-06
7.5368063e-05
6.7802638e-06
2.0756515e-06
5.0148169e-06
-1.5241077e-06
-4.7279794e-06
4.565959e-06
9.8663975e-07
-4.9837391e-06
9.1815517e-07
-3.3065686e-06
-3.9807236e-06
3.9427353e-06
1.5306379e-05
8.0068066e-06
-1.4282743e-05
-8.9043706e-06
-3.71909e-08
4.5087377e-06
2.3988362e-07
-3.3989089e-06
5.1608766e-06
4.0479149e-06
2.3288416e-06
1.3153246e-05
9.6441247e-06
-6.8238227e-06
-9.711122e-06
7.0472702e-06
1.7039931e-06
-1.8165282e-05
-1.0481165e-05
-9.18428e-07
1.7240194e-06
6.2902617e-07
-7.6073732e-07
1.3445028e-06
3.2511102e-06
6.0269006e-06
9.603709e-06
6.7799299e-06
-2.2497898e-06
-6.6773249e-06
-2.3724017e-06
-3.3486294e-06
-7.8452615e-06
-5.5107195e-06
-1.0633367e-06
4.1460744e-07
4.8893867e-07
3.0146357e-07
1.2636394e-06
2.6989384e-06
4.4965329e-06
5.7445083e-06
3.7937559e-06
-8.0070889e-07
-3.5992419e-06
-2.9963438e-06
-3.3532357e-06
-4.4012323e-06
-3.2921919e-06
-9.1174793e-07
-4.6619365e-08
3.201787e-07
5.5304479e-07
1.1269164e-06
1.9933989e-06
2.9047223e-06
3.2124264e-06
2.0586727e-06
-1.6584164e-07
-1.8143994e-06
-2.1965989e-06
-2.4642308e-06
-2.6610605e-06
-2.0454338e-06
-7.044634e-07
-1.6471966e-07
2.0109285e-07
4.9919431e-07
8.9392219e-07
1.3763282e-06
1.7860803e-06
1.7998367e-06
1.1403485e-06
1.558378e-08
-9.3070822e-07
-1.402504e-06
-1.627558e-06
-1.6487041e-06
-1.2972231e-06
-5.0715842e-07
-1.6405631e-07
1.2468494e-07
3.8051872e-07
6.4944512e-07
9.12925e-07
1.0887975e-06
1.0303783e-06
6.5104313e-07
5.3336574e-08
-4.9810902e-07
-8.5645219e-07
-1.0326685e-06
-1.0357723e-06
-8.3917805e-07
-3.5552166e-07
-1.3314135e-07
7.5233986e-08
2.6726038e-07
4.4695621e-07
5.9680883e-07
6.7139341e-07
6.0934751e-07
3.849613e-07
5.2383168e-08
-2.7843085e-07
-5.1851138e-07
-6.4721972e-07
-6.5711043e-07
-5.4752543e-07
-2.4405404e-07
-1.0089554e-07
4.2827213e-08
1.7895102e-07
2.9860899e-07
3.8676018e-07
4.1986494e-07
3.7120198e-07
2.344943e-07
4.1446496e-08
-1.568914e-07
-3.1388742e-07
-4.0539591e-07
-4.2016645e-07
-3.6037475e-07
-1.6663895e-07
-7.412875e-08
2.5426445e-08
1.1865977e-07
1.9787356e-07
2.51848e-07
2.6726551e-07
2.3177795e-07
1.4850511e-07
3.1312551e-08
-9.2824803e-08
-1.9491203e-07
-2.562591e-07
-2.700745e-07
-2.3695201e-07
-1.1302395e-07
-5.1297022e-08
1.7061544e-08
8.1339626e-08
1.3417754e-07
1.6769173e-07
1.7514601e-07
1.5023245e-07
9.6083029e-08
2.154712e-08
-5.598944e-08
-1.2366532e-07
-1.664043e-07
-1.7818244e-07
-1.588569e-07
-7.9403849e-08
-3.5547053e-08
1.3210639e-08
5.850717e-08
9.4599238e-08
1.1704614e-07
1.2075523e-07
1.0287451e-07
6.6269559e-08
1.7371721e-08
-3.7247879e-08
-8.2484978e-08
-1.1230049e-07
-1.2132022e-07
-1.0860525e-07
-5.8279216e-08
-2.4739037e-08
1.240761e-08
4.6095635e-08
7.1931507e-08
8.7334434e-08
8.8981215e-08
7.511821e-08
4.8291193e-08
1.3288293e-08
-2.5226242e-08
-5.9206265e-08
-8.2150255e-08
-8.9623021e-08
-8.0873049e-08
-4.8143477e-08
-1.9077661e-08
1.2687278e-08
4.0814043e-08
6.1396418e-08
7.3666992e-08
7.3985523e-08
6.1992735e-08
3.9675587e-08
1.0875081e-08
-2.0602372e-08
-4.9087974e-08
-6.8830577e-08
-7.5392248e-08
-6.7964596e-08
1.1118737e-05
-3.0698569e-05
2.0701787e-06
2.1526876e-05
3.2438815e-06
1.1218333e-06
-7.1665267e-05
-1.1617996e-05
4.6626935e-05
-6.9151189e-06
1.7148938e-05
-0.00012281324
1.2018095e-06
0.00013015755
9.023197e-06
3.1577363e-06
4.884464e-06
3.6953395e-07
-2.835463e-06
-2.7831996e-06
4.9592435e-07
8.6532083e-06
-4.6715883e-06
-1.6993936e-05
-2.551878e-06
1.1720426e-05
2.9842817e-05
1.9302133e-06
-2.5244978e-05
-5.5639887e-06
1.5474757e-07
5.1755537e-06
6.4377996e-07
-3.5290746e-06
-1.8810458e-06
1.9425903e-06
1.1799723e-05
1.8695254e-06
-9.6609014e-06
-1.7247325e-06
5.6467109e-06
2.5588831e-05
-1.1942348e-07
-2.7121188e-05
-8.1842406e-06
-9.804848e-07
1.1580164e-06
3.6457797e-07
-7.942545e-07
-8.9434833e-09
1.8550661e-06
4.5437996e-06
3.4110443e-06
3.7501122e-07
-2.7530823e-07
5.2786662e-07
4.3330945e-06
-1.5739695e-06
-8.2310116e-06
-4.3931258e-06
-1.0269853e-06
1.8453222e-07
2.140434e-07
3.67365e-08
6.0785295e-07
1.6757838e-06
2.9420872e-06
2.7456663e-06
1.2613522e-06
4.1903187e-08
-4.9785753e-07
1.2532725e-07
-1.8025699e-06
-3.82172e-06
-2.6795459e-06
-8.4636569e-07
-1.5923474e-07
1.3011429e-07
3.0378165e-07
7.1924963e-07
1.3293746e-06
1.9023195e-06
1.8576742e-06
1.0928249e-06
1.6204784e-07
-5.2154136e-07
-7.8400542e-07
-1.4959304e-06
-2.0792372e-06
-1.6757141e-06
-6.3947784e-07
-2.1527505e-07
8.227848e-08
3.243278e-07
6.2976578e-07
9.7804872e-07
1.2392892e-06
1.1931716e-06
7.6695036e-07
1.5344075e-07
-3.7878993e-07
-7.42121e-07
-1.0860811e-06
-1.2703143e-06
-1.0721351e-06
-4.5968226e-07
-1.847189e-07
5.5152123e-08
2.6812019e-07
4.8497171e-07
6.8760649e-07
8.0786129e-07
7.5612008e-07
4.9875836e-07
1.1542564e-07
-2.5207332e-07
-5.3832121e-07
-7.4085713e-07
-8.1417988e-07
-7.0283215e-07
-3.2322921e-07
-1.4148368e-07
3.5005947e-08
1.9891331e-07
3.498364e-07
4.7207422e-07
5.2813633e-07
4.811164e-07
3.1940638e-07
8.2829309e-08
-1.6469535e-07
-3.6204913e-07
-4.9211523e-07
-5.3183168e-07
-4.6536381e-07
-2.2343758e-07
-1.0302818e-07
2.0481095e-08
1.3893128e-07
2.4235159e-07
3.1819098e-07
3.4574464e-07
3.0892199e-07
2.0417351e-07
5.6834034e-08
-1.0308373e-07
-2.3521938e-07
-3.2348072e-07
-3.5117467e-07
-3.126063e-07
-1.5390736e-07
-7.4548383e-08
1.3581934e-08
9.5562041e-08
1.6521253e-07
2.1283215e-07
2.2714181e-07
1.989036e-07
1.3338992e-07
3.9418689e-08
-6.3996132e-08
-1.539405e-07
-2.1251102e-07
-2.3193925e-07
-2.1102207e-07
-1.0576146e-07
-5.1269363e-08
1.047915e-08
6.7564226e-08
1.1464423e-07
1.4475826e-07
1.523783e-07
1.3227647e-07
8.8996636e-08
2.7328676e-08
-3.8110073e-08
-9.9989066e-08
-1.4127748e-07
-1.5679908e-07
-1.4523512e-07
-7.6600351e-08
-3.6083751e-08
9.1726413e-09
5.0058058e-08
8.2354191e-08
1.0323955e-07
1.0756162e-07
9.3073539e-08
6.3547632e-08
2.2873248e-08
-2.6229342e-08
-6.8455247e-08
-9.7403616e-08
-1.0871282e-07
-1.0043902e-07
-5.6327119e-08
-2.4624687e-08
1.0169485e-08
4.0875305e-08
6.3896717e-08
7.8040082e-08
8.0119552e-08
6.8609305e-08
4.6468431e-08
1.7289302e-08
-1.8137049e-08
-5.0081118e-08
-7.2638458e-08
-8.1698117e-08
-7.5543373e-08
-4.6450033e-08
-1.8681252e-08
1.1155335e-08
3.6938622e-08
5.5084688e-08
6.6030422e-08
6.6599266e-08
5.6544223e-08
3.7795302e-08
1.4157645e-08
-1.4932563e-08
-4.1775128e-08
-6.1292637e-08
-6.9104445e-08
-6.3761077e-08
5.0634415e-06
-9.2364682e-07
-2.4674004e-05
4.0065566e-06
1.7016454e-05
-2.1269914e-06
2.2468374e-06
-7.2656845e-06
-1.6222011e-06
-1.6053866e-05
5.4511273e-06
-3.3571173e-05
-3.1963576e-06
5.0974354e-05
5.5318684e-06
2.5514994e-06
3.7629851e-06
2.9416548e-06
-3.166533e-06
-5.2700375e-06
-1.2699495e-06
1.0598463e-06
-2.9656664e-06
-6.1798242e-06
4.2578302e-07
6.5187279e-06
1.3246155e-05
1.7974026e-06
-1.1066578e-05
-2.1015291e-06
2.4462767e-08
2.9886343e-06
2.9114611e-06
-2.9790154e-06
-4.1117592e-06
-5.2539242e-07
1.7968825e-06
-2.1407813e-07
-3.099355e-06
1.7882739e-06
5.2151465e-06
1.2358062e-05
1.1758062e-06
-1.2727481e-05
-4.3439942e-06
-9.1176067e-07
7.857126e-07
5.7212343e-07
-1.0056912e-06
-9.7089169e-07
2.5893215e-07
1.4005359e-06
1.005462e-06
7.3257117e-08
9.38344e-07
2.0345609e-06
3.6871437e-06
-1.2510167e-07
-4.5568907e-06
-2.8527335e-06
-9.0091102e-07
5.8485802e-08
1.1675554e-07
-2.3117114e-07
1.8383433e-08
6.3927894e-07
1.2456391e-06
1.1752015e-06
7.143122e-07
6.1518979e-07
7.0030747e-07
8.8449617e-07
-6.6683823e-07
-2.2954707e-06
-1.9033243e-06
-7.2730562e-07
-1.9236643e-07
1.6304581e-08
8.1111657e-08
3.2512792e-07
6.9309735e-07
1.0067709e-06
9.9785657e-07
6.969461e-07
4.1002257e-07
1.7494216e-07
-6.671495e-08
-7.4648832e-07
-1.3553382e-06
-1.2471e-06
-5.5239173e-07
-2.2805318e-07
-2.0531043e-09
1.6578308e-07
3.7225103e-07
6.0034123e-07
7.6138368e-07
7.4833563e-07
5.4717081e-07
2.6628795e-07
-1.0836398e-08
-2.9085063e-07
-6.3659713e-07
-8.8113832e-07
-8.2559618e-07
-4.0001338e-07
-1.8987366e-07
-1.1883883e-09
1.6350453e-07
3.2404224e-07
4.6823009e-07
5.5247161e-07
5.2882855e-07
3.870908e-07
1.7099175e-07
-6.3024087e-08
-2.8607726e-07
-4.8590214e-07
-5.9849966e-07
-5.5986379e-07
-2.8210746e-07
-1.4154638e-07
1.325844e-09
1.3355556e-07
2.5315546e-07
3.4626964e-07
3.9063054e-07
3.6396448e-07
2.620601e-07
1.0643405e-07
-6.2491803e-08
-2.2393494e-07
-3.4981762e-07
-4.1042186e-07
-3.8497283e-07
-1.9892077e-07
-1.0342567e-07
1.0809972e-09
9.933635e-08
1.8549616e-07
2.4723353e-07
2.7179731e-07
2.4784192e-07
1.7702983e-07
6.9123754e-08
-5.0486042e-08
-1.6236687e-07
-2.443343e-07
-2.8073041e-07
-2.6417417e-07
-1.3943403e-07
-7.3240905e-08
-4.20847e-10
7.1494856e-08
1.3225673e-07
1.7375084e-07
1.8807133e-07
1.6993482e-07
1.1882287e-07
4.6554949e-08
-3.4633444e-08
-1.1130799e-07
-1.6876226e-07
-1.9453681e-07
-1.8346821e-07
-9.9354477e-08
-5.1658406e-08
1.6119803e-09
5.2889658e-08
9.4866864e-08
1.2314611e-07
1.3143651e-07
1.1784038e-07
8.3124522e-08
3.4437941e-08
-2.4605477e-08
-7.7364009e-08
-1.1674835e-07
-1.3470178e-07
-1.2759746e-07
-6.9199335e-08
-3.4758139e-08
4.6684318e-09
4.1857381e-08
7.1493879e-08
8.9770656e-08
9.4648003e-08
8.3422083e-08
5.8289577e-08
2.3487204e-08
-1.4724045e-08
-5.4170944e-08
-8.3048904e-08
-9.6948826e-08
-9.3511362e-08
-5.1721782e-08
-2.3925487e-08
7.3482574e-09
3.5748205e-08
5.7268426e-08
7.0127964e-08
7.2641823e-08
6.3038313e-08
4.4135824e-08
1.8254729e-08
-1.1227419e-08
-4.1167287e-08
-6.2859985e-08
-7.3381911e-08
-7.0530158e-08
-4.2980676e-08
-1.8152557e-08
9.2241157e-09
3.3276549e-08
5.0499588e-08
6.0553685e-08
6.1360379e-08
5.2396853e-08
3.663898e-08
1.540835e-08
-9.7011245e-09
-3.4933542e-08
-5.3205769e-08
-6.2147003e-08
-5.9483449e-08
1.4978646e-05
-4.5199252e-05
-1.5290445e-06
6.0379794e-05
-7.3678449e-06
9.948631e-06
-1.5845668e-05
-1.0516269e-05
1.7176441e-05
1.6749683e-06
-7.9026746e-06
-7.8093712e-06
1.4995565e-06
4.741884e-06
-1.4737329e-05
-3.9234616e-07
9.1364322e-06
1.2854708e-06
-1.0345362e-05
-4.0942351e-06
-1.8725228e-06
1.644043e-07
-9.6348722e-07
-3.1949062e-06
-1.4403839e-06
2.6958243e-06
5.40349e-06
4.8016245e-06
3.4928052e-07
-1.5414107e-06
-2.0423437e-06
8.1195645e-06
1.2366292e-06
-9.9819036e-06
-3.3941373e-06
-2.1158803e-06
3.5074548e-07
-2.2145475e-07
-2.3494981e-06
3.6283108e-07
4.1600992e-06
6.5408042e-06
3.7268508e-06
-1.8577815e-06
-2.5926986e-06
-1.3930761e-06
1.2124208e-06
3.401176e-07
-2.0656639e-06
-1.2272433e-06
-7.1146452e-07
-9.8097052e-08
-1.3948203e-08
-2.3345877e-08
1.1129293e-06
2.4075298e-06
3.0189268e-06
1.1304242e-06
-1.5569198e-06
-2.1470827e-06
-9.413852e-07
1.7989176e-07
5.7507788e-08
-5.9019502e-07
-3.1472747e-07
-4.3881873e-08
2.3170725e-07
3.734403e-07
4.8581673e-07
8.6485673e-07
1.1940006e-06
1.1329844e-06
1.077978e-07
-1.0980933e-06
-1.4278223e-06
-6.7115314e-07
-1.6829345e-07
-3.3873732e-08
-8.0782508e-08
6.693113e-08
2.4524876e-07
4.0625525e-07
4.9305147e-07
5.1562309e-07
5.5671647e-07
5.2624202e-07
2.9485254e-07
-2.5336749e-07
-7.9626264e-07
-9.4151199e-07
-4.8603109e-07
-2.235664e-07
-4.7155267e-08
6.0340558e-08
1.8956273e-07
3.2070059e-07
4.1928407e-07
4.5634075e-07
4.2419853e-07
3.4271677e-07
2.0688663e-07
-2.1640315e-08
-3.3103189e-07
-5.8707295e-07
-6.4029353e-07
-3.4927765e-07
-1.8637775e-07
-3.5709804e-08
8.9111325e-08
2.0324771e-07
2.9854328e-07
3.6010755e-07
3.6826458e-07
3.1548402e-07
2.1057632e-07
6.4758875e-08
-1.157776e-07
-3.0185932e-07
-4.3191651e-07
-4.4710474e-07
-2.4988739e-07
-1.3961429e-07
-2.3673808e-08
8.2820817e-08
1.7567215e-07
2.4610727e-07
2.8377119e-07
2.7798127e-07
2.2447394e-07
1.2973915e-07
8.9373412e-09
-1.2360904e-07
-2.4178078e-07
-3.1390144e-07
-3.1635736e-07
-1.7908845e-07
-1.0290639e-07
-1.6373661e-08
6.6661739e-08
1.3825446e-07
1.8930508e-07
2.1308042e-07
2.0253663e-07
1.5764621e-07
8.3179212e-08
-9.9865323e-09
-1.047292e-07
-1.8244064e-07
-2.2556938e-07
-2.2358208e-07
-1.2620759e-07
-7.2989897e-08
-1.0734989e-08
5.1322133e-08
1.0424627e-07
1.4101378e-07
1.5560644e-07
1.4503413e-07
1.0925279e-07
5.3564207e-08
-1.1885104e-08
-7.9607044e-08
-1.3355863e-07
-1.6263076e-07
-1.6061062e-07
-9.0502563e-08
-5.1560594e-08
-5.1309182e-09
4.0802165e-08
7.9163259e-08
1.0478911e-07
1.1378302e-07
1.0427501e-07
7.730195e-08
3.6716923e-08
-1.1716949e-08
-5.9436005e-08
-9.667889e-08
-1.1614702e-07
-1.1385331e-07
-6.44952e-08
-3.5092948e-08
1.7429302e-10
3.4475558e-08
6.249304e-08
8.0328734e-08
8.5712634e-08
7.6892348e-08
5.5837508e-08
2.5107304e-08
-9.5107813e-09
-4.4549036e-08
-7.1274425e-08
-8.5024636e-08
-8.3483389e-08
-4.8204837e-08
-2.410511e-08
4.3382229e-09
3.1163578e-08
5.2317434e-08
6.519065e-08
6.7886217e-08
5.9636101e-08
4.2688479e-08
1.9093039e-08
-8.075467e-09
-3.5035408e-08
-5.5182874e-08
-6.5325498e-08
-6.3572401e-08
-4.0194995e-08
-1.8575587e-08
6.6496904e-09
2.978753e-08
4.7331557e-08
5.7628606e-08
5.8640115e-08
5.0765618e-08
3.6151354e-08
1.6566794e-08
-6.7508149e-09
-2.9772628e-08
-4.6873155e-08
-5.5515636e-08
-5.3947547e-08
3.9465271e-05
1.2944318e-05
-1.8167649e-05
-7.6982923e-06
1.9029581e-06
-9.5913288e-07
1.7742417e-05
6.8903761e-06
-7.4094666e-06
-1.0451418e-05
-1.4034784e-06
-5.4285241e-05
-5.5825601e-05
2.3646084e-05
5.3331146e-05
-9.7548182e-06
5.5836565e-07
5.6611516e-06
7.1067518e-07
-2.7796284e-06
-2.2441108e-06
-4.2628521e-06
-3.9480074e-06
-6.4891102e-07
2.4679986e-06
4.529326e-06
8.3847766e-06
8.5657261e-06
1.3378557e-06
-8.8699913e-06
-1.0435983e-05
-4.7328664e-07
4.9671679e-06
5.6581825e-07
-1.8320824e-06
-2.3933873e-06
-4.9704905e-06
-3.3927363e-06
7.0275825e-08
4.0619954e-06
6.2321265e-06
9.460768e-06
7.6587267e-06
-4.7851352e-07
-9.4881853e-06
-3.3592842e-06
-3.7944444e-07
1.1460654e-06
2.5614523e-08
-4.6440088e-07
-1.0940557e-06
-1.841821e-06
-1.1152169e-06
3.248965e-07
2.2310415e-06
3.3318861e-06
3.2924345e-06
1.7172409e-06
-8.6489983e-07
-3.208512e-06
-1.4590586e-06
-3.3739289e-07
2.7869964e-07
8.1441683e-09
-1.1389075e-07
-3.3326182e-07
-5.2412086e-07
-1.6364982e-07
4.8412492e-07
1.2338011e-06
1.5721792e-06
1.2486352e-06
3.5545651e-07
-6.2509991e-07
-1.4666238e-06
-7.5570774e-07
-2.9781574e-07
1.3033398e-08
4.2710199e-08
6.2919701e-08
3.1113317e-08
2.8974645e-08
2.0274983e-07
4.5625346e-07
6.9336657e-07
7.2157247e-07
4.3697951e-07
-6.4964252e-08
-5.3171202e-07
-8.4019265e-07
-4.7257056e-07
-2.4535791e-07
-4.902089e-08
5.8093248e-08
1.2976705e-07
1.7248667e-07
2.1341043e-07
2.8733455e-07
3.7040618e-07
4.035078e-07
3.2239578e-07
1.0245497e-07
-1.9109101e-07
-4.3734851e-07
-5.521431e-07
-3.2504795e-07
-1.8776147e-07
-4.8294588e-08
6.1193517e-08
1.4430281e-07
2.006562e-07
2.4075572e-07
2.7291318e-07
2.7993211e-07
2.4107464e-07
1.3620255e-07
-2.6318008e-08
-2.0622631e-07
-3.4127611e-07
-3.855445e-07
-2.3141488e-07
-1.3854421e-07
-3.6217599e-08
5.6191003e-08
1.3141389e-07
1.8431699e-07
2.1634877e-07
2.2497334e-07
2.0367149e-07
1.4688144e-07
5.2285722e-08
-6.6091127e-08
-1.8076492e-07
-2.5861342e-07
-2.7643475e-07
-1.6616565e-07
-1.0183312e-07
-2.6261837e-08
4.7000884e-08
1.08988e-07
1.5140162e-07
1.7444355e-07
1.7310818e-07
1.456125e-07
9.1834261e-08
1.6884137e-08
-6.9062102e-08
-1.4503665e-07
-1.9261771e-07
-1.9946982e-07
-1.1867188e-07
-7.302013e-08
-1.7312384e-08
3.8054498e-08
8.4855476e-08
1.1966211e-07
1.345604e-07
1.2962353e-07
1.0413038e-07
6.0300829e-08
1.6597991e-09
-5.9751013e-08
-1.1143267e-07
-1.4201412e-07
-1.4521144e-07
-8.5319068e-08
-5.1249948e-08
-9.3359777e-09
3.244308e-08
6.7516896e-08
9.2493791e-08
1.0190418e-07
9.5420999e-08
7.4054459e-08
3.988959e-08
-3.8577564e-09
-4.7813875e-08
-8.3437322e-08
-1.0393416e-07
-1.0492768e-07
-6.1825115e-08
-3.4988527e-08
-2.4972766e-09
2.9359583e-08
5.5708867e-08
7.3066843e-08
7.8976477e-08
7.1945373e-08
5.3971758e-08
2.697237e-08
-5.5591276e-09
-3.7762762e-08
-6.3111846e-08
-7.7074228e-08
-7.6946446e-08
-4.6210521e-08
-2.3974536e-08
2.6910626e-09
2.7989166e-08
4.8332726e-08
6.1148546e-08
6.4012194e-08
5.6816463e-08
4.1665263e-08
2.0108751e-08
-5.2515503e-09
-3.0307276e-08
-4.9690359e-08
-6.0175063e-08
-5.9455688e-08
-3.8735276e-08
-1.8474246e-08
5.5984848e-09
2.77236e-08
4.4833345e-08
5.5178529e-08
5.6175319e-08
4.9010741e-08
3.5661848e-08
1.7352909e-08
-4.1257108e-09
-2.5788996e-08
-4.2528097e-08
-5.1694387e-08
-5.1078302e-08
5.5672265e-05
-1.9720743e-05
-4.575255e-05
1.6548759e-05
-5.234503e-06
8.9369235e-06
3.2122677e-05
-1.0240793e-06
2.0285739e-05
-4.0956354e-05
-7.5163545e-05
3.4522888e-05
7.1591953e-05
-5.4324949e-05
8.0633129e-07
-1.0053598e-05
7.1331969e-07
7.8302289e-06
3.2416325e-06
3.9389902e-06
-2.5034749e-06
-1.0676585e-05
-6.7563103e-06
-2.9705426e-06
8.6412908e-06
1.3199927e-05
-2.6646187e-06
-7.3265579e-06
6.9436489e-06
-1.5066625e-06
-1.0104762e-05
7.4268368e-07
7.3811979e-06
2.2944754e-06
3.590073e-06
-2.771186e-06
-1.0089842e-05
-5.2909611e-06
-1.9034072e-06
9.2188126e-06
1.3459829e-05
-1.1897082e-06
-6.8428466e-06
4.8664855e-06
-3.0216886e-06
-3.1066253e-06
-2.9527381e-07
1.7673577e-06
1.1790448e-06
1.1590384e-06
-1.1694209e-06
-3.2834891e-06
-1.7722883e-06
2.1154694e-07
3.3477034e-06
4.3122444e-06
1.0480909e-06
-1.0383186e-06
-2.1019188e-07
-2.0153923e-06
-1.3493371e-06
-3.766049e-07
4.3216267e-07
4.9513904e-07
4.4642675e-07
-3.3716076e-07
-9.9458557e-07
-4.22871e-07
4.9907121e-07
1.5214998e-06
1.7133174e-06
7.1897153e-07
-2.4746957e-07
-6.0878189e-07
-1.2296769e-06
-7.3171397e-07
-3.1714837e-07
6.7955957e-08
2.0735794e-07
2.3169524e-07
1.6592533e-09
-1.632674e-07
8.5254192e-08
4.7070205e-07
7.9407471e-07
7.6310452e-07
3.1963234e-07
-1.9887508e-07
-5.3908025e-07
-7.8755868e-07
-4.6338595e-07
-2.486743e-07
-2.9860397e-08
1.0535717e-07
1.6377381e-07
1.3686469e-07
1.2799578e-07
2.2937511e-07
3.7452883e-07
4.4786681e-07
3.5423794e-07
9.2958258e-08
-2.1016361e-07
-4.3245949e-07
-5.3475686e-07
-3.1789544e-07
-1.8805291e-07
-4.5768576e-08
6.6974918e-08
1.4016801e-07
1.7096497e-07
1.9516708e-07
2.4242327e-07
2.7998776e-07
2.639801e-07
1.6250734e-07
-1.0353197e-08
-1.9638917e-07
-3.3050243e-07
-3.7548132e-07
-2.2597653e-07
-1.3848317e-07
-3.8622293e-08
5.0925054e-08
1.195723e-07
1.6218746e-07
1.9091656e-07
2.0820622e-07
2.0258141e-07
1.5890129e-07
7.0723089e-08
-4.9590161e-08
-1.6721663e-07
-2.4761204e-07
-2.6803495e-07
-1.6077364e-07
-1.0017087e-07
-2.8657275e-08
4.0291582e-08
9.7508708e-08
1.3810786e-07
1.6043378e-07
1.6350841e-07
1.4461348e-07
9.8646643e-08
2.8425144e-08
-5.7047072e-08
-1.3423399e-07
-1.8497051e-07
-1.9507137e-07
-1.1829524e-07
-7.3819126e-08
-1.9143827e-08
3.4067221e-08
7.8500791e-08
1.0915463e-07
1.2470445e-07
1.2334897e-07
1.0294334e-07
6.424511e-08
8.8524094e-09
-5.2022298e-08
-1.0434311e-07
-1.3544691e-07
-1.397513e-07
-8.4583714e-08
-5.1132857e-08
-1.0478739e-08
2.9223165e-08
6.2550587e-08
8.620398e-08
9.5956826e-08
9.1489217e-08
7.3319818e-08
4.2414276e-08
9.6232067e-10
-4.2541499e-08
-7.8837427e-08
-1.0053312e-07
-1.0294865e-07
-6.2681032e-08
-3.5178725e-08
-3.2607034e-09
2.722732e-08
5.2669944e-08
6.831749e-08
7.4945432e-08
6.9401441e-08
5.3681596e-08
2.9111786e-08
-2.5118357e-09
-3.4158166e-08
-5.9983204e-08
-7.4792105e-08
-7.5063804e-08
-4.6926754e-08
-2.4091563e-08
2.1582772e-09
2.6342437e-08
4.584709e-08
5.7878302e-08
6.1301638e-08
5.5303638e-08
4.1887406e-08
2.2164845e-08
-2.9341361e-09
-2.7819136e-08
-4.7884641e-08
-5.9223637e-08
-5.8858783e-08
-3.9623707e-08
-1.8652377e-08
5.2517787e-09
2.6483875e-08
4.2722431e-08
5.2504468e-08
5.4000678e-08
4.7942898e-08
3.6094641e-08
1.9370619e-08
-2.2345566e-09
-2.3944559e-08
-4.1526884e-08
-5.1463097e-08
-5.1058728e-08
1.2839809e-05
1.6444334e-05
-8.9089017e-06