/*--------------------------------*- C++ -*----------------------------------*\
| =========                 |                                                 |
| \\      /  F ield         | OpenFOAM: The Open Source CFD Toolbox           |
|  \\    /   O peration     | Version:  3.0.1                                 |
|   \\  /    A nd           | Web:      www.OpenFOAM.org                      |
|    \\/     M anipulation  |                                                 |
\*---------------------------------------------------------------------------*/
FoamFile
{
    version     2.0;
    format      ascii;
    class       volScalarField;
    location    "0.2";
    object      sigmaUn;
}
// * * * * * * * * * * * * * * * * * * * * * * * * * * * * * * * * * * * * * //

dimensions      [0 2 -2 0 0 0 0];

internalField   uniform 0;

boundaryField
{
    movingWall
    {
        type            calculated;
        value           nonuniform List<scalar> 
225
(
-1.2910116e-07
-1.3127899e-07
-1.2881361e-07
-1.2300193e-07
-1.1528969e-07
-1.0840441e-07
-1.0178952e-07
-9.8247612e-08
-9.7804942e-08
-9.9430141e-08
-1.0538959e-07
-1.0808335e-07
-1.1351767e-07
-1.2035951e-07
-1.2694687e-07
-1.7096383e-07
-1.7084298e-07
-1.6681844e-07
-1.6016826e-07
-1.5328329e-07
-1.456897e-07
-1.4022076e-07
-1.3737165e-07
-1.3748689e-07
-1.4132486e-07
-1.4390906e-07
-1.4795967e-07
-1.5415135e-07
-1.6106873e-07
-1.658441e-07
-1.8072168e-07
-1.7871488e-07
-1.7308583e-07
-1.6557042e-07
-1.5826556e-07
-1.5190483e-07
-1.4815124e-07
-1.4564787e-07
-1.4509037e-07
-1.4751423e-07
-1.5144865e-07
-1.5731338e-07
-1.649297e-07
-1.7226866e-07
-1.770375e-07
-1.6138609e-07
-1.5647097e-07
-1.4954613e-07
-1.4207799e-07
-1.3470527e-07
-1.2974299e-07
-1.2867426e-07
-1.2738616e-07
-1.2714566e-07
-1.2939925e-07
-1.3292498e-07
-1.4039466e-07
-1.4818065e-07
-1.5432621e-07
-1.5847664e-07
-1.1090326e-07
-1.0815572e-07
-1.039459e-07
-9.930359e-08
-9.4155221e-08
-9.171416e-08
-9.2131137e-08
-9.2297835e-08
-9.3008598e-08
-9.4485528e-08
-9.8500948e-08
-1.0366562e-07
-1.0846157e-07
-1.1193494e-07
-1.1523361e-07
-4.3834354e-08
-4.315934e-08
-4.3640247e-08
-4.4520868e-08
-4.5143592e-08
-4.5742477e-08
-4.6118921e-08
-4.6953605e-08
-4.8824248e-08
-5.1070406e-08
-5.3258743e-08
-5.4118501e-08
-5.3401302e-08
-5.1347606e-08
-4.953126e-08
2.715447e-08
2.8126738e-08
2.4968744e-08
1.9397941e-08
1.281988e-08
8.8336257e-09
7.1535824e-09
5.1216828e-09
2.1060975e-09
-1.4279879e-09
5.2048144e-10
3.9834958e-09
1.0154547e-08
1.7852955e-08
2.5503521e-08
9.6336232e-08
9.5565435e-08
9.0539983e-08
8.1661364e-08
7.0309536e-08
6.2223756e-08
5.8707879e-08
5.5056642e-08
5.1830789e-08
4.9653626e-08
5.3858929e-08
6.2435176e-08
7.2779863e-08
8.3141288e-08
9.2142886e-08
1.4912615e-07
1.4789527e-07
1.4174486e-07
1.3058562e-07
1.1558268e-07
1.0428828e-07
1.0044862e-07
9.6878656e-08
9.4705021e-08
9.3959221e-08
9.9949126e-08
1.1114873e-07
1.2303978e-07
1.3416403e-07
1.4356777e-07
1.7524946e-07
1.7547182e-07
1.704229e-07
1.6043084e-07
1.4642733e-07
1.3775173e-07
1.3215018e-07
1.2896969e-07
1.2848413e-07
1.3082452e-07
1.3486809e-07
1.4534252e-07
1.5570143e-07
1.6542605e-07
1.7391804e-07
1.7353755e-07
1.7416837e-07
1.7141181e-07
1.6572716e-07
1.5806651e-07
1.522309e-07
1.4596809e-07
1.429356e-07
1.4424059e-07
1.5011035e-07
1.5377005e-07
1.5975388e-07
1.6543776e-07
1.7044158e-07
1.7392118e-07
1.4376201e-07
1.4309286e-07
1.4150468e-07
1.3954635e-07
1.3859092e-07
1.3433148e-07
1.3096307e-07
1.2977566e-07
1.324636e-07
1.3844231e-07
1.4262029e-07
1.427324e-07
1.4330403e-07
1.4355248e-07
1.4270545e-07
8.5722647e-08
8.4201644e-08
8.3344394e-08
8.460875e-08
8.8873194e-08
8.9924215e-08
8.964432e-08
9.0927969e-08
9.3841512e-08
9.7720749e-08
9.9228434e-08
9.546787e-08
9.2775099e-08
9.0159963e-08
8.760367e-08
1.0651542e-08
8.1187499e-09
8.5177159e-09
1.3287136e-08
2.1517453e-08
2.7775545e-08
3.0586063e-08
3.3180464e-08
3.5154282e-08
3.6541722e-08
3.7635875e-08
3.1865388e-08
2.6592159e-08
2.0975106e-08
1.5747142e-08
-6.4629684e-08
-6.8018017e-08
-6.6604935e-08
-6.0602117e-08
-5.1344874e-08
-4.4160959e-08
-3.8535959e-08
-3.4941641e-08
-3.3465298e-08
-3.2600097e-08
-3.7019291e-08
-4.1194278e-08
-4.7142423e-08
-5.4407793e-08
-6.203969e-08
)
;
    }
    CPLReceiveMD
    {
        type            calculated;
        value           nonuniform List<scalar> 
225
(
0.065846908
0.030274615
0.0666079
0.060927319
0.023906345
0.0064519641
0.27537575
0.099376996
0.071110554
0.059628959
0.29493985
0.31293741
0.2841442
0.02869599
0.076691074
0.031907125
0.017297452
0.13291308
0.008367196
0.018451591
0.056068258
0.0021414074
0.021456961
0.047527199
0.029976622
0.059254802
0.014174868
0.048597024
0.026825276
0.054035136
0.028301936
0.095130295
1.7106392
0.051992693
0.034151161
0.051119081
0.061990358
0.012168011
0.27911249
0.053042505
0.3574542
0.055868297
0.24073897
0.030486166
0.11189373
3.6394659
0.032261946
0.052039467
0.0073163007
0.060827143
0.39792685
0.029031495
0.046997316
0.58271796
0.036161224
0.047953717
0.055221828
0.026078212
0.060382629
0.0020287666
0.024389431
0.032151232
0.062231875
0.051706877
0.04831451
0.022933593
0.046454332
0.068317051
0.21569521
0.09552925
0.29752343
0.003329655
0.090777587
0.12012434
0.034023385
0.033578219
0.026560561
0.040173626
0.049672022
0.053910989
0.045395806
0.062499979
0.06107889
0.68518741
0.065088833
0.074054621
0.053313454
0.092230415
0.05010694
0.013607213
0.21535256
0.035049192
0.06983548
0.056415226
0.12492827
0.022505376
0.015977832
0.047021161
0.042846768
0.068196463
0.087325658
0.05539313
0.051546917
0.020671072
0.0115303
0.116314
0.063038549
0.025518403
0.068775693
0.022225893
0.029981389
0.21025659
0.020654927
0.25864565
0.094937811
0.079242572
0.1450061
0.054881689
0.01124619
0.057739376
0.0034933045
6.7616659
0.052245567
0.05971994
0.041065256
0.031593939
0.1239041
0.00058531588
0.016565041
0.021324127
0.48239949
0.052957933
0.67719469
0.054596472
0.13407108
0.049194151
15.341092
0.16145057
0.22844523
0.014855495
0.033985374
0.050124156
0.059281932
0.005447815
0.050816355
0.30911986
0.0023894569
0.023133249
0.069561058
0.043002165
0.11014858
0.12714194
0.01170471
0.12689996
0.065752505
0.047927864
0.059259335
0.032512229
0.49999635
0.047165663
0.053143502
0.62462438
0.049500094
0.081465537
0.042214603
0.27298157
0.034666483
0.095062605
0.010243142
0.037175132
0.051548366
0.047955962
0.0034248859
0.99528874
0.39390399
0.031137118
0.26718448
0.048307281
0.089800232
0.011517423
0.032101397
0.0043927226
0.032087886
0.87364582
0.02769122
0.075669543
0.017429674
0.698587
0.043150347
0.0018258798
0.0053712082
0.032419574
0.039575945
0.082147827
0.070968519
0.026319269
0.051836944
0.021448786
0.012743896
0.079163688
0.016201938
0.00905769
0.79139036
0.036437717
0.11406722
0.043854359
0.058586732
0.093900842
0.073265692
0.10225906
0.0067854375
0.029962599
0.04532079
0.046522306
0.035985075
0.025895118
0.048704081
0.050162433
0.59863324
0.13163491
0.078638435
0.014033591
0.21051391
0.054016633
0.017990675
)
;
    }
    streamwiseIn
    {
        type            cyclic;
    }
    streamwiseOut
    {
        type            cyclic;
    }
    front
    {
        type            cyclic;
    }
    back
    {
        type            cyclic;
    }
}


// ************************************************************************* //
