/*--------------------------------*- C++ -*----------------------------------*\
| =========                 |                                                 |
| \\      /  F ield         | OpenFOAM: The Open Source CFD Toolbox           |
|  \\    /   O peration     | Version:  3.0.1                                 |
|   \\  /    A nd           | Web:      www.OpenFOAM.org                      |
|    \\/     M anipulation  |                                                 |
\*---------------------------------------------------------------------------*/
FoamFile
{
    version     2.0;
    format      ascii;
    class       volScalarField;
    location    "0.2";
    object      sigmaxz;
}
// * * * * * * * * * * * * * * * * * * * * * * * * * * * * * * * * * * * * * //

dimensions      [0 2 -2 0 0 0 0];

internalField   nonuniform List<scalar> 
3375
(
1.5527744e-05
7.1955754e-06
4.9746252e-06
1.8561272e-05
7.5580437e-05
2.4224246e-05
0.00015438304
0.00018203279
0.00056807326
0.0014387868
2.7935036e-05
0.00024264201
6.5269012e-05
-2.2656351e-06
1.3509862e-05
2.2847653e-06
-1.7892506e-06
6.9679917e-07
6.360179e-06
6.6391022e-06
1.5762479e-05
3.5891227e-05
2.6025324e-05
-6.5455663e-05
-0.00010495301
-4.3158412e-06
5.0082087e-05
2.2740856e-05
7.1327489e-06
3.6314627e-06
1.1943787e-06
-1.845034e-07
1.026673e-06
3.265447e-06
3.4635188e-06
5.6455802e-06
8.5564612e-06
2.2159077e-06
-1.8635343e-05
-2.613212e-05
-4.1648728e-06
1.1110682e-05
7.7529416e-06
3.1443561e-06
1.7410854e-06
5.9575342e-07
2.3566391e-07
7.5244622e-07
1.559255e-06
1.6627756e-06
1.9260775e-06
1.8795117e-06
-7.4041148e-07
-5.9121348e-06
-7.3214552e-06
-1.9833984e-06
2.5240298e-06
2.5578925e-06
1.387595e-06
8.7640045e-07
3.2322827e-07
2.5203576e-07
4.5596264e-07
7.3460532e-07
7.4121335e-07
6.578825e-07
3.3144307e-07
-6.8905735e-07
-2.0922819e-06
-2.3239234e-06
-8.5844442e-07
5.5621293e-07
8.5805699e-07
6.2021497e-07
4.3285189e-07
1.9036918e-07
1.9001089e-07
2.56886e-07
3.3867228e-07
3.2218544e-07
2.1861625e-07
-3.529235e-09
-3.9766733e-07
-8.0311499e-07
-8.3445525e-07
-3.8471968e-07
1.0965687e-07
3.0079386e-07
2.7641608e-07
2.1987982e-07
1.1411879e-07
1.1913109e-07
1.4088561e-07
1.605699e-07
1.4313651e-07
7.360164e-08
-4.9029688e-08
-2.0728256e-07
-3.3746191e-07
-3.3491709e-07
-1.7842797e-07
7.3180925e-09
1.0637552e-07
1.2446558e-07
1.1751655e-07
6.8578132e-08
6.9358329e-08
7.697548e-08
7.9409349e-08
6.307579e-08
2.271112e-08
-3.7184592e-08
-1.037591e-07
-1.5088746e-07
-1.4684639e-07
-8.6699052e-08
-1.085205e-08
3.7630638e-08
5.4752397e-08
6.3737499e-08
4.075766e-08
3.9967146e-08
4.2459262e-08
3.936799e-08
2.8053915e-08
6.3115275e-09
-2.3618595e-08
-5.2858326e-08
-7.0332555e-08
-6.9068779e-08
-4.4200995e-08
-9.263295e-09
1.4116598e-08
2.3837921e-08
3.4470491e-08
2.4442871e-08
2.4549079e-08
2.3123334e-08
1.9842105e-08
1.0278209e-08
-3.1082523e-09
-1.6759244e-08
-2.9416538e-08
-3.4923851e-08
-3.0579681e-08
-1.9963934e-08
-7.3441448e-09
5.2175935e-09
1.3902343e-08
2.0740116e-08
1.160399e-08
1.2014047e-08
1.1440458e-08
1.0401685e-08
8.7556905e-09
-4.724585e-10
-1.1104839e-08
-1.4929048e-08
-1.7785205e-08
-1.9111871e-08
-1.1907915e-08
-3.232095e-09
1.628329e-09
9.9257397e-09
1.2773495e-08
7.309215e-09
5.5536188e-09
4.9623744e-09
3.8636943e-09
4.0305662e-09
-1.207115e-10
-6.278897e-09
-7.8641762e-09
-8.6317341e-09
-1.0447501e-08
-7.6096816e-09
-1.5214317e-09
2.0974307e-09
6.2171144e-09
8.4401252e-09
3.868839e-09
2.4043744e-09
2.080676e-09
1.0245951e-09
1.1470262e-09
-2.5203332e-10
-3.3517984e-09
-4.4485357e-09
-4.8782801e-09
-5.7256795e-09
-3.891018e-09
5.221e-11
2.2729795e-09
4.4310175e-09
5.265625e-09
2.4783206e-09
2.123891e-09
1.2090246e-09
-4.612386e-10
-1.8694166e-09
-1.9609707e-09
-2.0832799e-09
-2.6968907e-09
-2.9470857e-09
-2.3203616e-09
-1.127345e-09
2.644361e-10
1.9109044e-09
3.8356598e-09
3.6443534e-09
2.0621997e-09
2.6247712e-09
7.1524817e-10
-1.1835333e-09
-4.0957608e-09
-3.5945898e-09
-1.0546469e-09
-1.382994e-09
-1.9028601e-09
-2.6253015e-10
2.1100435e-10
-3.46245e-10
1.631349e-09
3.8074672e-09
2.7711211e-09
2.8050269e-05
-4.1583072e-05
0.00017562766
-0.00034353551
3.8821789e-05
-5.3620617e-05
-3.382626e-05
-2.9537192e-05
-1.6021205e-05
1.3362233e-05
-9.1482758e-06
7.2462558e-06
-7.0425262e-06
0.00010379351
1.257607e-06
3.3513357e-06
-1.0045427e-05
-2.7906907e-06
2.2087687e-05
9.2126407e-06
-8.6286855e-06
-3.4648847e-06
-2.9293387e-07
-1.4651415e-06
-9.4130178e-07
5.076285e-06
6.6711519e-06
-4.0994146e-06
-1.195691e-05
-2.731778e-06
-1.7632875e-08
-2.019848e-06
3.4875595e-07
5.509357e-06
2.8119361e-06
-1.7130663e-06
-1.435418e-06
-6.2545556e-07
-5.1114395e-07
1.5088401e-07
2.0432458e-06
2.1906912e-06
-1.3912088e-06
-3.8282308e-06
-1.5128709e-06
-3.3919259e-07
-4.8786106e-07
3.7505962e-07
1.5797581e-06
9.0824041e-07
-3.4898334e-07
-5.5813681e-07
-3.9086709e-07
-1.7167373e-07
2.343933e-07
8.0799022e-07
7.4278208e-07
-3.9869288e-07
-1.209387e-06
-7.4343105e-07
-2.4636501e-07
-1.4261033e-07
1.7345918e-07
4.9261896e-07
3.1020397e-07
-7.2506765e-08
-2.2055903e-07
-1.8801355e-07
-5.4030416e-08
1.6026663e-07
3.4538002e-07
2.7904785e-07
-9.0234522e-08
-3.8464056e-07
-3.6201704e-07
-1.2977724e-07
-6.5824998e-08
5.9671921e-08
1.6378529e-07
1.028687e-07
-2.3496246e-08
-7.9439113e-08
-7.1889791e-08
-1.3278796e-08
8.8971264e-08
1.5882002e-07
1.1736987e-07
-1.295293e-08
-1.3363074e-07
-1.6119736e-07
-6.4518846e-08
-3.4311985e-08
1.3460547e-08
5.0620894e-08
3.4578218e-08
-7.497102e-09
-3.0934391e-08
-2.4698048e-08
4.8213165e-09
4.7413204e-08
7.3879846e-08
5.7397688e-08
5.0880825e-09
-5.0510073e-08
-7.4789397e-08
-3.3877878e-08
-1.8774553e-08
-9.414195e-10
1.2904049e-08
9.4876117e-09
-2.506476e-09
-9.7012294e-09
-5.3567898e-09
8.8637023e-09
2.7209796e-08
3.6083839e-08
2.8246045e-08
6.6530247e-09
-2.05895e-08
-3.7700212e-08
-1.8743266e-08
-1.1071033e-08
-4.3846863e-09
6.951945e-10
8.071665e-10
-1.3724205e-09
-1.8381655e-09
1.0513363e-09
6.5373277e-09
1.6283518e-08
2.0782346e-08
1.5136407e-08
4.4931902e-09
-9.130447e-09
-1.9246475e-08
-8.9150293e-09
-8.2757593e-09
-5.7759252e-09
-1.5063091e-09
9.1841678e-10
-1.1509609e-09
-2.1340796e-09
1.375235e-09
4.8238552e-09
9.5758222e-09
1.183063e-08
7.4572e-09
1.141345e-09
-2.8073987e-09
-6.557049e-09
-3.8880594e-09
-4.2884997e-09
-4.8544955e-09
-2.3258492e-09
-2.7106856e-09
-3.9003714e-09
-2.0141761e-09
1.2385901e-09
5.3526214e-09
6.6599197e-09
6.5486766e-09
4.6630167e-09
1.5097893e-09
3.32656e-10
-2.323135e-09
-3.6490406e-09
-4.7009247e-09
-4.3362489e-09
-2.3425466e-09
-2.5082352e-09
-1.3129291e-09
1.393946e-09
1.9558287e-09
2.391401e-09
4.1752739e-09
4.0846313e-09
1.9754238e-09
1.9338535e-09
1.7353727e-09
-7.958008e-10
-3.1908956e-09
-4.7549552e-09
-4.0553481e-09
-3.101813e-09
-2.555951e-09
-1.3362705e-10
2.3814101e-09
2.3331151e-09
1.3847229e-09
2.3984934e-09
3.2984103e-09
2.2163207e-09
1.9319657e-09
1.7640625e-09
8.408955e-11
-1.3921397e-09
-3.1078156e-09
-3.6329491e-09
-4.7556069e-09
-3.1490267e-09
-2.3093995e-10
1.4270962e-09
2.6164116e-09
2.6925381e-09
2.2721808e-09
2.1215406e-09
1.7618108e-09
1.333022e-09
1.2876364e-09
7.5624255e-10
2.7230345e-10
-1.7279999e-09
-3.8800919e-09
-6.3087747e-09
-3.5891099e-09
-5.2716425e-11
9.8134955e-10
2.9921475e-09
4.023586e-09
2.4606216e-09
7.1038858e-10
9.1806027e-10
1.1415616e-09
9.9367928e-10
1.0649965e-09
-9.5931783e-06
-3.1067744e-05
-1.1153438e-05
3.0751303e-05
-5.7465385e-05
6.0184413e-06
-0.00014309081
-0.00017712285
-0.00054387423
-0.0014098629
-7.587305e-06
-0.00022256756
1.0636207e-05
-9.1412672e-06
-8.9361936e-06
-3.1731727e-06
-3.9406132e-06
1.3828019e-06
1.0377609e-05
6.274398e-07
-2.273957e-05
-4.1485869e-05
-2.9146906e-05
6.2908038e-05
0.00010558897
1.2425198e-05
-4.3517482e-05
-2.842411e-05
-1.5596346e-05
-5.9222403e-06
-2.3799216e-06
-1.7603103e-06
3.0965785e-07
2.760023e-06
-4.9048935e-07
-7.7030044e-06
-1.1028505e-05
-4.0698366e-06
1.7546189e-05
2.6897069e-05
7.5670277e-06
-8.2358705e-06
-9.0689486e-06
-6.5572778e-06
-3.7859718e-06
-1.4310471e-06
-9.3909944e-07
-1.0332938e-07
5.4218437e-07
-5.1193193e-07
-2.4839323e-06
-2.9187325e-06
-1.641999e-07
5.562138e-06
7.8584205e-06
3.4097228e-06
-1.3055561e-06
-2.8261989e-06
-2.6862285e-06
-2.0022138e-06
-8.0405365e-07
-5.3844232e-07
-2.0533152e-07
-9.2138e-09
-3.1444675e-07
-8.119391e-07
-7.4296027e-07
3.0671817e-07
1.979189e-06
2.6390512e-06
1.498715e-06
-2.66942e-08
-8.6554806e-07
-1.097304e-06
-1.0077412e-06
-4.3716987e-07
-3.2190489e-07
-1.823735e-07
-1.0439694e-07
-1.7434754e-07
-2.7156221e-07
-1.6091309e-07
2.537193e-07
7.9002686e-07
1.0037299e-06
6.7863587e-07
1.407956e-07
-2.616398e-07
-4.5729278e-07
-4.9530726e-07
-2.352883e-07
-1.9037263e-07
-1.304704e-07
-9.1076543e-08
-9.4306748e-08
-9.2455185e-08
-1.4563033e-08
1.5745459e-07
3.5015616e-07
4.249652e-07
3.1835885e-07
1.1355592e-07
-7.534415e-08
-1.9640923e-07
-2.4420463e-07
-1.282602e-07
-1.1096713e-07
-8.544713e-08
-6.4488627e-08
-5.1581285e-08
-3.102967e-08
1.629596e-08
9.2390012e-08
1.673773e-07
1.954577e-07
1.561327e-07
7.1890817e-08
-1.7974215e-08
-8.670353e-08
-1.2309281e-07
-7.0203123e-08
-6.5359905e-08
-5.3841517e-08
-4.1176113e-08
-2.8692963e-08
-1.0793855e-08
1.7609023e-08
5.3284594e-08
8.4091333e-08
9.6593931e-08
8.0959005e-08
4.2065817e-08
-2.8339725e-09
-3.9678991e-08
-6.2023197e-08
-3.7610144e-08
-3.8431443e-08
-3.246366e-08
-2.4673695e-08
-1.5812965e-08
-3.5340032e-09
1.2834565e-08
3.0700384e-08
4.5593277e-08
5.2386405e-08
4.2919501e-08
2.1407681e-08
-7.8585e-10
-2.0658557e-08
-3.1871501e-08
-2.1916945e-08
-2.113538e-08
-1.9460778e-08
-1.5699641e-08
-9.2199298e-09
-7.147105e-10
8.3740002e-09
1.832342e-08
2.779205e-08
2.7370587e-08
2.0792945e-08
1.3079032e-08
1.3143807e-09
-9.9871271e-09
-1.8911907e-08
-1.3079199e-08
-1.3361905e-08
-1.269624e-08
-1.0600409e-08
-6.501636e-09
-9.394e-11
6.379074e-09
1.1716242e-08
1.5752855e-08
1.5860085e-08
1.2695432e-08
7.557335e-09
1.176215e-09
-4.6868451e-09
-1.011707e-08
-8.2180944e-09
-8.9317952e-09
-9.0773518e-09
-8.3809455e-09
-5.3922313e-09
1.69906e-10
5.1975863e-09
8.3332354e-09
1.0147494e-08
1.0297825e-08
8.4559192e-09
4.807264e-09
9.90471e-10
-2.497203e-09
-5.9020742e-09
-5.164949e-09
-6.1590558e-09
-7.1991597e-09
-7.5120307e-09
-4.8497352e-09
3.016075e-10
4.5092135e-09
7.2112275e-09
8.782267e-09
8.18963e-09
5.4864347e-09
2.6176503e-09
2.377955e-10
-2.2963294e-09
-4.1545688e-09
-3.7968398e-09
-5.0641541e-09
-6.3641287e-09
-7.0922719e-09
-4.2856135e-09
8.0680175e-10
4.3161965e-09
6.8660546e-09
8.6130431e-09
7.2983009e-09
3.7994941e-09
1.492491e-09
-3.50178e-10
-2.6799694e-09
-3.5592269e-09
-4.7312737e-05
3.2283058e-06
-0.00013581114
1.1967718e-05
-1.6565212e-05
-1.2707889e-05
-5.0501996e-05
4.4854724e-05
8.9787008e-05
0.00012265914
3.1068138e-05
-8.4496939e-05
1.0647406e-05
-0.00012994496
7.4585551e-06
-1.1775824e-05
-2.8585009e-06
5.7902006e-06
1.8128397e-06
-6.9661663e-06
-1.3280665e-05
-2.2860044e-05
-1.3498954e-05
3.8556453e-05
6.1013824e-05
1.4422111e-05
-2.2422066e-05
-1.7616915e-05
-3.8500224e-06
-6.4850818e-06
-4.5567645e-06
-2.0701081e-06
1.9095267e-07
-1.5392955e-07
-2.9820178e-06
-6.0303743e-06
-7.9173715e-06
-1.8908564e-06
1.55475e-05
2.2472314e-05
8.1558533e-06
-5.640422e-06
-7.1133341e-06
-3.8954058e-06
-4.1160455e-06
-2.1964031e-06
-1.3510679e-06
-6.1327252e-07
-5.73374e-07
-1.4546546e-06
-2.4784567e-06
-2.4214327e-06
5.6786977e-07
6.2972727e-06
8.3849182e-06
4.023927e-06
-9.401046e-07
-2.5701245e-06
-2.3189458e-06
-2.3561549e-06
-1.1588122e-06
-8.4608823e-07
-5.5867111e-07
-5.0100768e-07
-7.409576e-07
-9.635284e-07
-6.2623669e-07
7.260155e-07
2.6529193e-06
3.3018525e-06
1.9303794e-06
1.0266e-07
-8.8348435e-07
-1.1717204e-06
-1.2633214e-06
-6.3674604e-07
-5.1082439e-07
-3.9107705e-07
-3.4566144e-07
-3.7226483e-07
-3.5715097e-07
-1.0353026e-07
4.9084877e-07
1.177701e-06
1.3941629e-06
9.3257515e-07
2.2779798e-07
-2.8895915e-07
-5.5282555e-07
-6.6404652e-07
-3.5212456e-07
-3.0594104e-07
-2.4990885e-07
-2.1263335e-07
-1.8837101e-07
-1.3226402e-07
2.3921085e-08
2.8967182e-07
5.5176714e-07
6.2990312e-07
4.6151663e-07
1.7136761e-07
-8.8203232e-08
-2.565493e-07
-3.421522e-07
-1.9486661e-07
-1.8012899e-07
-1.529752e-07
-1.262193e-07
-9.611371e-08
-4.7737008e-08
4.0949185e-08
1.6351177e-07
2.6979464e-07
3.0019796e-07
2.3488612e-07
1.0819081e-07
-2.2742972e-08
-1.1985618e-07
-1.7689057e-07
-1.0672203e-07
-1.048105e-07
-9.1385845e-08
-7.3586887e-08
-5.038645e-08
-1.6335722e-08
3.304652e-08
9.149451e-08
1.388502e-07
1.5174479e-07
1.2193416e-07
6.180392e-08
-4.7497525e-09
-5.8665101e-08
-9.2231822e-08
-5.7365326e-08
-6.0351736e-08
-5.4319099e-08
-4.3776222e-08
-2.793826e-08
-5.457035e-09
2.292352e-08
5.2869376e-08
7.5855155e-08
8.2957077e-08
6.5560517e-08
3.2263205e-08
-1.7276825e-09
-3.2432865e-08
-4.9060627e-08
-3.510797e-08
-3.2773811e-08
-3.1285649e-08
-2.6567212e-08
-1.5282184e-08
-2.8798325e-10
1.5372118e-08
3.1790948e-08
4.4745684e-08
4.311222e-08
3.2184033e-08
1.9367083e-08
1.267946e-09
-1.6084354e-08
-3.0450865e-08
-2.0352264e-08
-1.9505606e-08
-1.950614e-08
-1.6901059e-08
-9.7524058e-09
-2.332285e-10
9.6142322e-09
1.9486246e-08
2.6438845e-08
2.4407446e-08
1.8520019e-08
1.1757695e-08
1.047427e-09
-8.219744e-09
-1.6801466e-08
-1.208558e-08
-1.214678e-08
-1.2915241e-08
-1.1526006e-08
-6.9547045e-09
-3.25925e-10
6.7040738e-09
1.3315458e-08
1.7712432e-08
1.6128931e-08
1.1619945e-08
6.8094687e-09
6.79175e-11
-5.844482e-09
-1.0559502e-08
-8.017e-09
-8.1947489e-09
-8.9874613e-09
-8.452875e-09
-5.4295898e-09
2.003485e-10
6.0121352e-09
1.0854895e-08
1.4181001e-08
1.2894875e-08
7.9297855e-09
3.1161105e-09
-1.743833e-09
-6.125792e-09
-8.2378506e-09
-6.3443837e-09
-6.2928239e-09
-6.8854192e-09
-7.0773e-09
-4.7180718e-09
9.350225e-10
6.0952865e-09
9.8692854e-09
1.2715529e-08
1.1700055e-08
6.2548047e-09
9.0471e-10
-3.1041415e-09
-6.6246396e-09
-7.4279169e-09
-2.4538613e-05
5.4334709e-06
4.2362568e-06
2.6300222e-05
-1.2534491e-05
-5.4982416e-05
-3.7368248e-05
-9.8807145e-06
-9.2183597e-06
2.0449296e-05
4.7706237e-06
-2.3400024e-05
-3.4648091e-05
-2.1286461e-05
-1.1993385e-05
-7.4991461e-06
-2.0036508e-06
-5.696072e-07
-4.6287507e-06
-5.642302e-06
-4.8962875e-06
-8.1809514e-06
-9.1479707e-07
2.143658e-05
2.7467633e-05
7.4953938e-06
-6.8665608e-06
-4.771028e-06
-3.0818498e-06
-7.4090105e-06
-3.8662799e-06
-1.9787719e-06
-1.2952859e-06
-2.165792e-06
-3.0417479e-06
-3.4139584e-06
-3.381552e-06
1.4700903e-06
1.0753695e-05
1.3008053e-05
5.2888414e-06
-1.5700677e-06
-2.7768186e-06
-2.867409e-06
-4.1630219e-06
-2.1295627e-06
-1.433501e-06
-1.1157093e-06
-1.2613512e-06
-1.6185219e-06
-1.7651436e-06
-1.0935534e-06
1.4677221e-06
5.09048e-06
5.9927156e-06
3.1477512e-06
6.1271325e-08
-1.2325874e-06
-1.7872292e-06
-2.3227832e-06
-1.2015135e-06
-9.4169666e-07
-7.7506876e-07
-7.7584803e-07
-8.5677708e-07
-7.8704392e-07
-2.4117207e-07
1.0082881e-06
2.4345399e-06
2.7781897e-06
1.7205402e-06
3.6024255e-07
-4.9307478e-07
-9.7257295e-07
-1.2570337e-06
-6.7775378e-07
-5.8521853e-07
-5.0143344e-07
-4.6891437e-07
-4.434068e-07
-3.235902e-07
1.5978535e-08
6.0589059e-07
1.1874513e-06
1.3253004e-06
9.1191541e-07
3.0362465e-07
-1.806636e-07
-4.9860534e-07
-6.7057512e-07
-3.847953e-07
-3.540097e-07
-3.102056e-07
-2.7424459e-07
-2.2715571e-07
-1.2807289e-07
6.8122682e-08
3.4806438e-07
5.9217773e-07
6.5058541e-07
4.8198097e-07
2.0212196e-07
-5.7606825e-08
-2.4854892e-07
-3.5841378e-07
-2.1787599e-07
-2.0930681e-07
-1.861163e-07
-1.575937e-07
-1.1691256e-07
-4.85583e-08
6.1274795e-08
1.9592514e-07
3.0281147e-07
3.284419e-07
2.5571014e-07
1.224833e-07
-1.4766475e-08
-1.2337744e-07
-1.9213918e-07
-1.2324155e-07
-1.2064204e-07
-1.0982803e-07
-9.0164055e-08
-6.0485258e-08
-1.6531958e-08
4.3739439e-08
1.1062785e-07
1.610002e-07
1.7023202e-07
1.3495976e-07
7.041323e-08
-1.8809e-09
-6.2463607e-08
-1.0573518e-07
-7.233785e-08
-6.8307339e-08
-6.409488e-08
-5.2332184e-08
-3.1185825e-08
-3.701605e-09
2.9153193e-08
6.4747554e-08
9.0385174e-08
8.721822e-08
6.8525386e-08
4.1887275e-08
2.5200975e-09
-3.1460015e-08
-6.1017207e-08
-3.5731378e-08
-4.2711997e-08
-3.8497831e-08
-3.031931e-08
-1.908438e-08
-2.4233495e-09
1.8038105e-08
3.601687e-08
4.7503931e-08
5.6226365e-08
4.4290844e-08
1.8075404e-08
-1.24619e-09
-2.1210146e-08
-2.8926938e-08
-2.1600839e-08
-2.4949139e-08
-2.281608e-08
-1.7894871e-08
-1.0682436e-08
-6.8728975e-10
1.1225151e-08
2.1693544e-08
2.746012e-08
3.1124675e-08
2.505788e-08
1.1253167e-08
-5.4761e-11
-1.1696872e-08
-1.7432249e-08
-1.3290305e-08
-1.4878119e-08
-1.3826968e-08
-1.0892006e-08
-6.459654e-09
-3.752615e-10
7.1792385e-09
1.4297845e-08
1.8295226e-08
1.8993655e-08
1.4580299e-08
6.793675e-09
-6.93176e-10
-8.1277325e-09
-1.1596719e-08
-8.8855348e-09
-9.2970782e-09
-8.633085e-09
-7.157199e-09
-4.3653837e-09
1.40776e-10
5.573389e-09
1.0822981e-08
1.4277123e-08
1.3208689e-08
8.9422438e-09
3.8969432e-09
-2.0469812e-09
-7.4199638e-09
-9.0569181e-09
-6.7706692e-09
-6.5543667e-09
-6.2337046e-09
-5.8384883e-09
-3.605183e-09
7.67095e-10
5.1851531e-09
9.3513777e-09
1.2773637e-08
1.0717739e-08
6.0179202e-09
2.1785445e-09
-2.8609105e-09
-7.185788e-09
-7.9423563e-09
2.5428733e-05
-1.8880185e-05
5.4496495e-05
-1.9520195e-05
-5.4454472e-06
-1.6354757e-05
-1.4166262e-05
-5.4612219e-05
2.2035994e-05
5.2038972e-06
-2.8542216e-05
4.4988468e-06
-0.00014857789
8.9321045e-06
-4.3361329e-05
-5.2500402e-06
-1.2983732e-06
-3.195283e-06
-3.0018983e-06
-3.4169574e-06
-6.2921263e-06
-1.5812711e-06
7.5588158e-06
1.086009e-05
8.3150061e-06
-8.7550909e-07
1.5344563e-06
1.0586375e-05
-2.036525e-06
-1.2032634e-05
-2.9922192e-06
-1.4705737e-06
-1.8547388e-06
-1.9499254e-06
-2.3603399e-06
-3.1055636e-06
-8.2559953e-07
3.8420993e-06
6.5796892e-06
5.8324377e-06
1.8361161e-06
8.2709143e-07
2.2280879e-06
-1.712554e-06
-4.874059e-06
-1.7596961e-06
-1.1606537e-06
-1.1493977e-06
-1.225448e-06
-1.4131912e-06
-1.4099371e-06
-2.2906523e-07
1.9621289e-06
3.5539669e-06
3.4529309e-06
1.8199487e-06
6.5254078e-07
2.349262e-07
-1.125217e-06
-2.2038379e-06
-1.032656e-06
-8.1156182e-07
-7.3625575e-07
-7.5338392e-07
-7.7841505e-07
-6.1422523e-07
2.4322803e-08
1.0548085e-06
1.8716057e-06
1.9095754e-06
1.2148992e-06
4.7332865e-07
-5.881055e-08
-6.6675711e-07
-1.0964755e-06
-5.9573614e-07
-5.2857539e-07
-4.7370157e-07
-4.5121555e-07
-4.1474011e-07
-2.611603e-07
9.4321747e-08
5.8921829e-07
9.823152e-07
1.0264322e-06
7.1985642e-07
3.077707e-07
-5.2461225e-08
-3.7022054e-07
-5.7210396e-07
-3.4357769e-07
-3.2600904e-07
-2.9598265e-07
-2.6711834e-07
-2.1719329e-07
-1.0479158e-07
9.1272996e-08
3.3387272e-07
5.1980007e-07
5.4739145e-07
4.0582663e-07
1.8850887e-07
-2.1208073e-08
-1.9919104e-07
-3.1160112e-07
-1.9780166e-07
-1.9531097e-07
-1.7913375e-07
-1.5513166e-07
-1.1385554e-07
-4.0171782e-08
6.8673236e-08
1.9033799e-07
2.793342e-07
2.9313448e-07
2.2375311e-07
1.1062694e-07
-5.483035e-09
-1.0666511e-07
-1.7230644e-07
-1.1442887e-07
-1.1458148e-07
-1.0664517e-07
-8.8940663e-08
-5.9263407e-08
-1.4024065e-08
4.6372182e-08
1.0922801e-07
1.5178604e-07
1.5697647e-07
1.2260105e-07
6.4047323e-08
8.854e-11
-5.6372192e-08
-9.684378e-08
-6.9993393e-08
-6.7372695e-08
-6.2231759e-08
-5.0141759e-08
-2.9885745e-08
-2.409425e-09
3.0146274e-08
6.2691556e-08
8.453514e-08
8.131919e-08
6.4434735e-08
3.9399375e-08
3.3526025e-09
-2.7505169e-08
-5.6338928e-08
-3.5904756e-08
-4.3277648e-08
-3.7661935e-08
-2.8006069e-08
-1.6570005e-08
-5.48241e-10
1.8522954e-08
3.4460787e-08
4.3682145e-08
5.0834975e-08
4.1920305e-08
1.8724581e-08
-1.2723e-10
-1.8750519e-08
-2.7299347e-08
-2.232256e-08
-2.601708e-08
-2.1553601e-08
-1.4829441e-08
-7.800165e-09
1.0929315e-09
1.160761e-08
2.0135334e-08
2.442344e-08
2.8199245e-08
2.3598776e-08
1.0903577e-08
3.4243e-10
-1.0939555e-08
-1.6840945e-08
-1.413885e-08
-1.536325e-08
-1.1866519e-08
-7.4876702e-09
-3.4784785e-09
1.2795892e-09
7.1839733e-09
1.2026878e-08
1.4499235e-08
1.6143414e-08
1.323044e-08
6.211611e-09
-6.005875e-11
-7.096051e-09
-1.1084269e-08
-8.9341604e-09
-8.8721216e-09
-6.5715489e-09
-3.8963984e-09
-1.5446058e-09
8.569735e-10
4.121059e-09
7.3184964e-09
9.2562005e-09
9.6506441e-09
7.92209e-09
4.188489e-09
-3.5657225e-10
-5.295503e-09
-7.843041e-09
-6.0227084e-09
-5.7517817e-09
-4.5531009e-09
-2.7224753e-09
-8.3493975e-10
3.64389e-10
2.4039923e-09
5.2954109e-09
7.0047015e-09
6.3020441e-09
5.4256911e-09
3.689651e-09
-3.9494925e-10
-4.2806363e-09
-5.925286e-09
8.1557269e-06
3.866292e-06
-3.3414861e-06
-1.5229753e-05
-2.0056973e-07
-9.3328891e-06
6.4065325e-06
1.227011e-06
7.9106898e-06
1.1942192e-05
-1.7304009e-05
8.4777691e-06
2.8706189e-05
7.519086e-05
2.5444096e-05
-2.3689715e-06
2.964791e-06
2.0302528e-06
-1.0173799e-06
-4.4375951e-06
-6.3139165e-06
-1.2383098e-06
6.202656e-06
7.5721988e-06
4.7706572e-06
-4.3394352e-07
9.7958532e-07
5.1587535e-06
-4.081452e-06
-9.7557594e-06
-1.9794968e-06
2.2433139e-07
1.6797309e-07
-1.0842055e-06
-2.3182508e-06
-2.7229668e-06
-4.0443002e-07
3.0173814e-06
4.2424168e-06
3.1999587e-06
7.3353598e-07
5.303102e-07
1.6563215e-06
-1.3707086e-06
-3.892164e-06
-1.2243386e-06
-4.6531443e-07
-3.745677e-07
-7.8430284e-07
-1.2081869e-06
-1.1663609e-06
-4.4504822e-08
1.5521811e-06
2.3223544e-06
1.9638898e-06
9.2455742e-07
4.4288155e-07
3.9371327e-07
-6.8396595e-07
-1.6480363e-06
-7.1548358e-07
-4.9041222e-07
-4.1782294e-07
-5.2290533e-07
-6.2604625e-07
-4.876271e-07
6.728914e-08
8.2409464e-07
1.2775916e-06
1.1727216e-06
7.0663947e-07
3.2463933e-07
5.841055e-08
-4.0074085e-07
-7.7034845e-07
-4.2542539e-07
-3.5927173e-07
-3.2155899e-07
-3.3094111e-07
-3.2596121e-07
-2.0432912e-07
9.511682e-08
4.6319121e-07
6.9735979e-07
6.7586575e-07
4.5944076e-07
2.1481566e-07
-1.92325e-09
-2.3156469e-07
-4.0481464e-07
-2.505858e-07
-2.3599341e-07
-2.17139e-07
-2.0328941e-07
-1.7040762e-07
-7.9439867e-08
8.1218178e-08
2.63308e-07
3.8420455e-07
3.8254352e-07
2.7522294e-07
1.3245211e-07
-5.87134e-09
-1.329886e-07
-2.2323426e-07
-1.4703443e-07
-1.4729649e-07
-1.3723041e-07
-1.2155077e-07
-8.972032e-08
-2.9116348e-08
5.8633174e-08
1.5188207e-07
2.1369578e-07
2.1405941e-07
1.5854482e-07
7.9024203e-08
-2.576775e-09
-7.567806e-08
-1.2563589e-07
-8.5685599e-08
-9.0217269e-08
-8.3939199e-08
-7.1099852e-08
-4.719549e-08
-9.776065e-09
3.8729149e-08
8.7592906e-08
1.1827108e-07
1.1946777e-07
9.088878e-08
4.6171407e-08
-4.33115e-10
-4.2462434e-08
-7.031206e-08
-4.9596504e-08
-5.6092601e-08
-5.0623793e-08
-4.0194677e-08
-2.469945e-08
-2.5081125e-09
2.4466242e-08
4.9210845e-08
6.4159384e-08
6.8502407e-08
5.4181374e-08
2.633835e-08
-1.1125e-10
-2.44564e-08
-3.857582e-08
-3.3650947e-08
-3.150204e-08
-2.8875114e-08
-2.1968494e-08
-1.1413435e-08
1.9347552e-09
1.6281719e-08
2.9189131e-08
3.721329e-08
3.3367729e-08
2.6944502e-08
1.840213e-08
2.3726093e-09
-1.1500457e-08
-2.6795376e-08
-1.9992146e-08
-1.9162715e-08
-1.6210666e-08
-1.115859e-08
-4.7228692e-09
2.3700933e-09
9.8357252e-09
1.673445e-08
2.1440044e-08
1.9019626e-08
1.4602974e-08
9.7673138e-09
6.0637125e-10
-7.535899e-09
-1.5593711e-08
-1.192099e-08
-1.0877504e-08
-8.3251105e-09
-4.9969893e-09
-1.466306e-09
2.1148053e-09
5.944053e-09
9.4063592e-09
1.1951065e-08
1.0994441e-08
7.970515e-09
4.657307e-09
-3.5789575e-10
-5.325929e-09
-9.7678229e-09
-6.9419814e-09
-5.7896067e-09
-4.1726001e-09
-1.992551e-09
-9.284425e-11
1.2188423e-09
3.0203765e-09
4.9808772e-09
6.0373263e-09
6.3200467e-09
5.2243458e-09
2.588367e-09
-5.584275e-10
-3.6392752e-09
-6.2028976e-09
-4.4576054e-09
-3.6159189e-09
-2.7808251e-09
-9.0732625e-10
4.19915e-10
4.0114595e-10
1.4680277e-09
3.1181264e-09
2.9277201e-09
3.7484998e-09
4.4558206e-09
2.1745762e-09
-4.830165e-10
-2.3902958e-09
-4.0788445e-09
-3.2055559e-05
2.7414937e-05
-4.627392e-05
8.1388302e-05
-9.0490347e-06
6.2448982e-05
2.684948e-06
2.645157e-05
4.563306e-06
1.2520177e-05
3.9212661e-05
8.8257427e-05
1.8018862e-05
7.0664558e-06
6.4395015e-05
-2.6057456e-06
4.0105034e-06
5.9528044e-06
5.8111208e-07
-5.7538657e-06
-8.1625931e-06
-1.6822703e-06
5.6835531e-06
6.993101e-06
3.7438713e-06
-5.4137723e-06
-5.8730319e-06
4.5623253e-06
2.8194669e-06
-4.7856215e-06
-1.3936494e-06
7.5880144e-07
1.9149968e-06
1.050353e-07
-2.2844312e-06
-2.9629009e-06
-5.5574124e-07
2.2715989e-06
2.8351403e-06
1.503001e-06
-1.0822758e-06
-1.1783788e-06
1.1607555e-06
5.1272269e-07
-1.604661e-06
-6.6301847e-07
-1.9192846e-08
3.5802201e-07
-1.6796647e-07
-9.3920426e-07
-1.0949397e-06
-1.0971281e-07
1.0494082e-06
1.35425e-06
8.4544493e-07
-1.3768632e-08
-1.7500126e-07
2.6664252e-07
-2.501902e-08
-6.6594449e-07
-3.4068002e-07
-1.7080331e-07
-6.4852529e-08
-2.0915378e-07
-4.2397182e-07
-3.9520846e-07
2.2075968e-08
5.2608181e-07
7.2129748e-07
5.274863e-07
1.8660122e-07
3.0194988e-08
3.0990018e-08
-1.1651528e-07
-3.2354277e-07
-2.0454473e-07
-1.601836e-07
-1.2899331e-07
-1.6077064e-07
-2.0376379e-07
-1.4983276e-07
5.6661823e-08
2.9222622e-07
3.9684892e-07
3.2602352e-07
1.7240685e-07
5.798764e-08
-1.2256885e-08
-9.7890618e-08
-1.8391871e-07
-1.2647269e-07
-1.189846e-07
-1.0803433e-07
-1.0890742e-07
-1.0219345e-07
-5.158253e-08
5.3310221e-08
1.6404127e-07
2.1959615e-07
1.955342e-07
1.2127807e-07
4.7066e-08
-1.1748092e-08
-6.5017512e-08
-1.0788533e-07
-7.8634793e-08
-8.0529397e-08
-7.51841e-08
-6.8426347e-08
-5.2514505e-08
-1.6519475e-08
3.8885128e-08
9.3906906e-08
1.224611e-07
1.140204e-07
7.7666201e-08
3.31832e-08
-6.0801575e-09
-3.8609288e-08
-6.3624898e-08
-4.781437e-08
-5.1913636e-08
-4.8325333e-08
-4.1602842e-08
-2.7243837e-08
-4.02862e-09
2.5527344e-08
5.3921926e-08
6.9006056e-08
6.5737394e-08
4.7094417e-08
2.1953473e-08
-2.14857e-09
-2.2852455e-08
-3.7310949e-08
-2.6438899e-08
-3.2212065e-08
-3.0002465e-08
-2.4636765e-08
-1.3438612e-08
4.50826e-10
1.5487192e-08
3.0756758e-08
3.8887529e-08
3.8745927e-08
2.8820514e-08
1.3155142e-08
-1.9946687e-09
-1.6134857e-08
-2.1445564e-08
-1.905612e-08
-1.5760172e-08
-1.5867811e-08
-1.251555e-08
-8.3272235e-09
5.164175e-11
1.0781345e-08
1.8237399e-08
2.3336686e-08
2.1197699e-08
1.5360217e-08
8.542254e-09
-7.5704825e-10
-8.049134e-09
-1.7174184e-08
-9.9905854e-09
-8.7067504e-09
-8.5652499e-09
-6.638393e-09
-3.5410483e-09
1.1653485e-09
6.3940982e-09
1.0539911e-08
1.3768325e-08
1.2229875e-08
7.9333195e-09
3.5419545e-09
-2.110182e-09
-6.312277e-09
-9.7083458e-09
-4.9149695e-09
-4.0329404e-09
-4.1812565e-09
-3.2624311e-09
-1.1902155e-09
1.38084e-09
3.940009e-09
6.3594536e-09
8.0050206e-09
6.6243859e-09
3.6200337e-09
7.4325975e-10
-2.602504e-09
-4.7698005e-09
-5.7188829e-09
-2.4561808e-09
-1.7476932e-09
-2.05768e-09
-1.3953664e-09
2.04714e-11
1.2533236e-09
2.6716793e-09
4.1416497e-09
4.3056697e-09
3.081081e-09
1.4982138e-09
-4.633413e-10
-2.4193133e-09
-3.1154655e-09
-3.3170475e-09
-1.8377444e-09
-1.24001e-09
-1.3547381e-09
-5.5395585e-10
5.7823907e-10
1.3859355e-09
2.474668e-09
3.2044941e-09
2.3941236e-09
1.4171308e-09
6.5221082e-10
-8.4610452e-10
-1.9919789e-09
-2.0072745e-09
-2.2749991e-09
4.6926079e-06
-9.1549292e-06
1.4556766e-05
8.5395123e-07
-8.3204341e-06
0.00011393688
-9.4470376e-06
3.5529506e-05
3.9243747e-06
-6.4826763e-07
-2.2199179e-05
3.5209324e-05
-7.2275993e-05
-4.7174327e-05
-3.7066279e-05
-2.597166e-06
-2.0700283e-06
2.7467436e-06
5.7954195e-06
-2.1607848e-06
-9.6856575e-06
-7.6342932e-07
4.7309514e-06
1.3252587e-06
-1.0014961e-06
-5.365084e-06
-4.6890906e-06
3.94297e-06
7.2752335e-06
2.5407818e-06
-4.0985573e-07
-3.6368634e-07
1.1215106e-06
1.6337916e-06
-8.9534515e-07
-2.9206959e-06
-2.2066939e-07
1.6451187e-06
6.6201836e-07
-5.991849e-07
-1.9521173e-06
-1.4835322e-06
7.0250298e-07
1.9022283e-06
1.1779293e-06
2.5539514e-08
2.204508e-08
3.8582814e-07
3.9144115e-07
-3.4317902e-07
-7.9765329e-07
-1.16735e-08
5.9852171e-07
3.3138321e-07
-2.3856458e-07
-7.3814435e-07
-5.9164813e-07
3.9855337e-08
4.9215473e-07
4.3409414e-07
5.7648875e-08
5.1354739e-08
1.1268835e-07
6.1546753e-08
-1.3443991e-07
-2.0650324e-07
4.2131837e-08
2.4928328e-07
1.7238716e-07
-6.8097917e-08
-2.7560271e-07
-2.579691e-07
-6.0994985e-08
1.1279414e-07
1.4377276e-07
2.5201615e-08
2.0359662e-08
2.8080259e-08
-2.3808931e-09
-5.521774e-08
-5.2850346e-08
4.0247988e-08
1.1938825e-07
9.4739255e-08
-9.377455e-09
-1.0219865e-07
-1.087953e-07
-5.1484535e-08
1.3777066e-08
4.0510758e-08
4.8580112e-09
-3.5874e-10
-1.1699415e-09
-1.1783937e-08
-2.2912693e-08
-1.0284145e-08
2.9556523e-08
5.8581367e-08
4.8443654e-08
8.042732e-09
-3.3514876e-08
-4.6877167e-08
-2.9879612e-08
-3.5648185e-09
1.0863624e-08
-2.6380899e-09
-8.0203974e-09
-8.2248508e-09
-1.0365231e-08
-1.0022851e-08
4.81989e-10
1.8940141e-08
3.026419e-08
2.5054234e-08
1.0232238e-08
-8.6139933e-09
-1.9904143e-08
-1.4604294e-08
-4.5848556e-09
2.0058961e-09
-2.2225861e-09
-8.2288544e-09
-8.2189712e-09
-7.7640582e-09
-4.18258e-09
2.6492795e-09
1.1300303e-08
1.699523e-08
1.3901931e-08
8.3278092e-09
-6.52125e-10
-8.5356507e-09
-7.5871517e-09
-5.4563755e-09
-3.2619845e-10
2.7002698e-09
-5.546655e-09
-6.7072723e-09
-6.9898808e-09
-1.0536595e-09
3.7297003e-09
5.0301694e-09
8.6819593e-09
8.9061156e-09
7.0281252e-09
1.9392853e-09
-4.1326587e-09
-6.4902601e-09
-7.92984e-09
8.3460098e-10
-4.9982344e-09
2.2473818e-09
1.696395e-11
-7.7793543e-10
-3.7007048e-09
-1.7907799e-09
4.1761537e-09
6.2238551e-09
7.5426196e-09
4.1495898e-09
4.0853395e-10
-1.3942897e-09
-3.3820756e-09
-1.8992919e-09
-6.8217855e-09
-9.4560558e-10
2.8871142e-09
5.0343075e-10
-4.8093072e-10
-1.9099939e-09
-9.2005555e-10
2.3320959e-09
3.9134107e-09
4.8815193e-09
2.5651193e-09
-5.88299e-10
-2.5733693e-09
-3.9463468e-09
-2.345909e-09
-3.372179e-09
1.1091143e-09
3.025559e-09
7.0297423e-10
-2.4041097e-10
-5.2920988e-10
2.9659943e-10
2.154504e-09
3.147671e-09
3.1879139e-09
7.290149e-10
-2.1398097e-09
-3.6246759e-09
-4.1295532e-09
-2.273836e-09
-1.4158515e-09
1.1660561e-09
2.4381248e-09
8.1261002e-10
4.2994482e-10
5.7194392e-10
1.495209e-09
2.8180741e-09
2.8681333e-09
1.9885349e-09
-5.7801615e-10
-3.3191358e-09
-4.2742715e-09
-3.7682056e-09
-1.7940089e-09
-8.549899e-10
3.9979865e-10
1.82315e-09
9.7368308e-10
1.1991051e-09
1.268131e-09
2.2464399e-09
3.4274619e-09
2.6462394e-09
1.2835096e-09
-1.0441292e-09
-3.6773105e-09
-4.3536253e-09
-3.2730199e-09
-1.6431941e-09
-1.2762377e-09
2.3862284e-05
-2.2493645e-05
1.4749597e-05
-7.0493134e-05
2.3701505e-05
-6.8091293e-05
2.3925687e-05
-2.977734e-05
4.1051131e-05
6.0079243e-06
-5.6081634e-05