/*--------------------------------*- C++ -*----------------------------------*\
| =========                 |                                                 |
| \\      /  F ield         | OpenFOAM: The Open Source CFD Toolbox           |
|  \\    /   O peration     | Version:  3.0.1                                 |
|   \\  /    A nd           | Web:      www.OpenFOAM.org                      |
|    \\/     M anipulation  |                                                 |
\*---------------------------------------------------------------------------*/
FoamFile
{
    version     2.0;
    format      ascii;
    class       volVectorField;
    location    "0.2";
    object      Ub;
}
// * * * * * * * * * * * * * * * * * * * * * * * * * * * * * * * * * * * * * //

dimensions      [0 1 -1 0 0 0 0];

internalField   nonuniform List<vector> 
3375
(
(0.0013387359 -3.0387451e-05 3.8420544e-05)
(0.0015401124 -0.00020499289 2.658929e-05)
(0.00013412152 -0.00091845642 -0.00011945894)
(0.016311955 -2.9671577e-05 0.00011748502)
(0.00052664234 0.00084935126 0.00013645283)
(0.0022189666 2.9929518e-05 0.00013107814)
(0.0030901581 -0.00030828934 0.00088685478)
(0.0021668506 -0.00064343764 0.003098784)
(-0.0011621682 -0.00072627164 0.0044668779)
(-0.0022443527 0.00027485093 -0.002009382)
(0.00097485116 0.00075171109 -0.0050614464)
(0.0025240429 3.0794154e-05 -0.0012360754)
(0.0061538177 0.00026705941 -0.00030920486)
(0.00064376164 0.00056353816 -0.00011288944)
(0.0011576599 0.00011297902 -8.5511838e-06)
(0.00041866514 -3.7941914e-05 1.3861553e-06)
(0.00039800164 -0.00030688544 9.751418e-06)
(-2.6054902e-05 -0.0011384077 -3.4572678e-05)
(-0.00040277197 -5.4243293e-05 2.367241e-05)
(0.0001077804 0.0010014532 9.2592651e-05)
(0.00062672949 -1.5018725e-06 0.00015570548)
(0.00059230087 -0.00052868659 0.0004079825)
(0.00011148982 -0.0010457382 0.00087348477)
(-0.00097210963 -0.0010922091 0.00092846235)
(-0.0013644189 0.00039067161 -0.00043971914)
(-0.00039059793 0.0011514402 -0.0011801809)
(0.00017792083 0.00025081711 -0.00052587518)
(3.7500732e-05 0.00046255831 -0.00017857336)
(0.00024636109 0.00077706243 -7.1191113e-05)
(0.00045105914 0.00019710765 -3.5777414e-05)
(0.00023242519 1.579007e-06 -6.249228e-06)
(0.00018551031 -0.00013933994 -1.0571271e-06)
(5.113052e-05 -0.00028569005 -9.9393739e-06)
(-3.5407685e-05 -4.8672504e-05 1.9476329e-05)
(0.00010071197 0.0001606493 5.5369551e-05)
(0.00025405457 -8.2938424e-05 8.8746421e-05)
(0.00022079049 -0.00035699939 0.00016828118)
(-3.4725249e-05 -0.00060174708 0.0002598756)
(-0.00045435178 -0.00052057799 0.0002125993)
(-0.00059898487 0.00015204362 -0.00011283227)
(-0.00028681349 0.00056691471 -0.00031004543)
(-2.6901872e-05 0.0003645204 -0.0001961296)
(2.7720793e-05 0.00032520125 -8.7831762e-05)
(0.0001349057 0.0003319831 -4.1070903e-05)
(0.00022993993 0.00014657781 -2.4944624e-05)
(0.00013252844 2.3501962e-05 -5.600413e-06)
(0.00011064496 -4.8327865e-05 -2.27027e-06)
(6.4480098e-05 -9.0741232e-05 -8.8713664e-07)
(3.8877093e-05 -4.4499111e-05 1.2778655e-05)
(7.3305342e-05 -1.0788973e-05 3.0297963e-05)
(0.00010890514 -9.6167367e-05 4.6034168e-05)
(7.2849375e-05 -0.00021561805 6.8819513e-05)
(-5.2761924e-05 -0.00029657083 8.3624398e-05)
(-0.00021867839 -0.00022288865 5.4011277e-05)
(-0.00027716315 4.5659615e-05 -3.4618293e-05)
(-0.00017854325 0.00023716571 -9.2417821e-05)
(-6.4379127e-05 0.00022594051 -7.4286258e-05)
(1.6816014e-06 0.00020918426 -4.1937231e-05)
(6.7647142e-05 0.00018836763 -2.3128421e-05)
(0.00012060697 0.00010643349 -1.4185337e-05)
(7.7663734e-05 2.7799823e-05 -3.8863043e-06)
(7.1267067e-05 -1.2077673e-05 -1.2623295e-06)
(5.4959212e-05 -3.6031821e-05 1.1544103e-06)
(4.4543354e-05 -3.5481985e-05 7.8569231e-06)
(4.9043637e-05 -3.96118e-05 1.5846517e-05)
(4.9225402e-05 -7.7048346e-05 2.268119e-05)
(2.0386785e-05 -0.00012479127 2.9004166e-05)
(-4.1996153e-05 -0.00014662111 2.931005e-05)
(-0.00011212153 -0.00010113406 1.5223018e-05)
(-0.00013893065 1.0825604e-05 -1.2535589e-05)
(-0.00010653278 0.00010118516 -3.1255448e-05)
(-5.4883505e-05 0.0001258504 -2.9704479e-05)
(-9.8534227e-06 0.00012686965 -2.0131192e-05)
(3.2154785e-05 0.00011268246 -1.2543342e-05)
(6.5074184e-05 7.402342e-05 -7.7268941e-06)
(4.6427335e-05 2.418158e-05 -2.2775476e-06)
(4.6813309e-05 5.3616094e-07 -4.4517053e-07)
(4.1075782e-05 -1.645079e-05 1.5226699e-06)
(3.5297111e-05 -2.5578948e-05 4.6925493e-06)
(3.173898e-05 -3.5789091e-05 8.2961151e-06)
(2.3725663e-05 -5.4278625e-05 1.1136258e-05)
(3.2765981e-06 -7.2810475e-05 1.266844e-05)
(-2.910474e-05 -7.6064346e-05 1.1065673e-05)
(-6.1231704e-05 -5.0023783e-05 4.7150929e-06)
(-7.4843959e-05 6.9704517e-07 -4.9966267e-06)
(-6.3518482e-05 4.6251467e-05 -1.1974012e-05)
(-3.8694664e-05 6.8948026e-05 -1.269102e-05)
(-1.1486379e-05 7.5441914e-05 -9.7808751e-06)
(1.4800876e-05 6.9117833e-05 -6.6751435e-06)
(3.5724312e-05 4.9918831e-05 -4.2525539e-06)
(2.8281059e-05 1.8638142e-05 -1.2458712e-06)
(3.0634695e-05 3.9844479e-06 -1.057632e-07)
(2.8844102e-05 -8.2267494e-06 1.1367503e-06)
(2.5205052e-05 -1.7492948e-05 2.7119492e-06)
(2.0343959e-05 -2.6287702e-05 4.3481483e-06)
(1.2204016e-05 -3.6149923e-05 5.5746795e-06)
(-1.3989409e-06 -4.3333095e-05 5.8201809e-06)
(-1.9209467e-05 -4.1660845e-05 4.5940856e-06)
(-3.5360148e-05 -2.6730556e-05 1.6745296e-06)
(-4.2655416e-05 -1.6384755e-06 -2.1551527e-06)
(-3.8281814e-05 2.2794181e-05 -5.0238119e-06)
(-2.569307e-05 3.8432217e-05 -5.7237123e-06)
(-9.6836267e-06 4.4807696e-05 -4.8774502e-06)
(6.6316921e-06 4.2683012e-05 -3.596202e-06)
(2.0137922e-05 3.2892347e-05 -2.3881387e-06)
(1.7519434e-05 1.3338964e-05 -6.7083262e-07)
(1.9948416e-05 4.1785917e-06 -3.7976015e-09)
(1.9598384e-05 -4.3076031e-06 7.1633354e-07)
(1.7236158e-05 -1.1554442e-05 1.5357116e-06)
(1.3082005e-05 -1.7966616e-05 2.3045205e-06)
(6.6802685e-06 -2.3455906e-05 2.7972272e-06)
(-2.2343247e-06 -2.6324537e-05 2.7587429e-06)
(-1.2502203e-05 -2.402414e-05 2.0535353e-06)
(-2.1209338e-05 -1.5218167e-05 6.8356096e-07)
(-2.5319225e-05 -1.7245054e-06 -9.6421421e-07)
(-2.3447794e-05 1.1944667e-05 -2.2533668e-06)
(-1.6681154e-05 2.1935788e-05 -2.6981953e-06)
(-7.2355875e-06 2.6873908e-05 -2.4704078e-06)
(2.8855244e-06 2.6543183e-05 -1.9455826e-06)
(1.167944e-05 2.146825e-05 -1.3753599e-06)
(1.09914e-05 9.1071721e-06 -3.6113376e-07)
(1.2988127e-05 3.3805521e-06 1.9903624e-08)
(1.3111068e-05 -2.3067188e-06 4.3820909e-07)
(1.154604e-05 -7.4729574e-06 8.6908909e-07)
(8.4424949e-06 -1.1898625e-05 1.2255687e-06)
(3.8460936e-06 -1.5153626e-05 1.4301674e-06)
(-1.967176e-06 -1.6306338e-05 1.3517993e-06)
(-8.103098e-06 -1.4372361e-05 9.5779551e-07)
(-1.3060515e-05 -9.0552304e-06 2.9463276e-07)
(-1.5492583e-05 -1.4138311e-06 -4.4885569e-07)
(-1.4621522e-05 6.5821999e-06 -1.0867424e-06)
(-1.076383e-05 1.2827812e-05 -1.3328755e-06)
(-5.0762329e-06 1.6321456e-05 -1.2720082e-06)
(1.2260326e-06 1.6618817e-05 -1.0505436e-06)
(6.9337027e-06 1.3914324e-05 -7.9524978e-07)
(6.9856612e-06 6.024725e-06 -1.6673697e-07)
(8.5345253e-06 2.425698e-06 7.9018625e-08)
(8.7448748e-06 -1.3357766e-06 3.2424459e-07)
(7.6442516e-06 -4.8562262e-06 5.4148529e-07)
(5.4013358e-06 -7.8079624e-06 7.2108669e-07)
(2.2725559e-06 -9.7236756e-06 7.4704943e-07)
(-1.4530597e-06 -1.0197025e-05 6.589216e-07)
(-5.2510966e-06 -8.7738649e-06 4.1186456e-07)
(-8.2508081e-06 -5.5013133e-06 7.0590863e-08)
(-9.6817948e-06 -1.0140564e-06 -2.8661249e-07)
(-9.2061509e-06 3.7635637e-06 -5.4100277e-07)
(-6.9418982e-06 7.6827562e-06 -6.8589115e-07)
(-3.4445827e-06 1.0008423e-05 -6.8788566e-07)
(4.7839267e-07 1.039138e-05 -5.8153931e-07)
(4.1677944e-06 8.9310496e-06 -4.0983881e-07)
(4.4860488e-06 3.907049e-06 -7.7845405e-08)
(5.6276251e-06 1.6596243e-06 4.6154425e-08)
(5.8291434e-06 -8.0734419e-07 1.6243556e-07)
(5.0738539e-06 -3.1453261e-06 2.7496356e-07)
(3.5750455e-06 -5.0543303e-06 3.7046926e-07)
(1.457031e-06 -6.1788255e-06 4.5007738e-07)
(-1.0173654e-06 -6.4124999e-06 3.6102012e-07)
(-3.4073866e-06 -5.4678209e-06 2.2798057e-07)
(-5.3007061e-06 -3.411628e-06 6.2439188e-08)
(-6.2277064e-06 -6.1831245e-07 -1.2772354e-07)
(-5.9247096e-06 2.2475022e-06 -3.1979825e-07)
(-4.5189708e-06 4.6861836e-06 -3.6588185e-07)
(-2.3676089e-06 6.150342e-06 -3.8444015e-07)
(1.4865908e-07 6.4429187e-06 -3.3331529e-07)
(2.5670472e-06 5.6304054e-06 -1.8592536e-07)
(3.01488e-06 2.4789366e-06 3.726846e-09)
(3.8201321e-06 1.0992728e-06 6.3523153e-08)
(3.9399244e-06 -4.7135078e-07 1.147992e-07)
(3.3972654e-06 -1.9795677e-06 1.6277063e-07)
(2.3678364e-06 -3.180511e-06 1.9207307e-07)
(9.1438638e-07 -3.9168292e-06 2.4338198e-07)
(-7.4205512e-07 -4.0171434e-06 1.8965884e-07)
(-2.2502248e-06 -3.4164952e-06 1.1780404e-07)
(-3.4012997e-06 -2.132701e-06 3.2375292e-08)
(-4.0226647e-06 -3.8902134e-07 -5.4830624e-08)
(-3.9016549e-06 1.3872741e-06 -1.7657476e-07)
(-3.0390585e-06 2.8456478e-06 -2.0702429e-07)
(-1.6878477e-06 3.7511929e-06 -2.0700343e-07)
(-4.1543976e-08 3.9694106e-06 -1.6507566e-07)
(1.6319246e-06 3.4995323e-06 -8.2661146e-08)
(2.0857892e-06 1.508237e-06 3.2024629e-08)
(2.6773377e-06 6.3681024e-07 5.9120352e-08)
(2.750303e-06 -3.4352775e-07 8.0112104e-08)
(2.3646937e-06 -1.2573318e-06 1.0073389e-07)
(1.637784e-06 -1.9474302e-06 1.0060401e-07)
(6.2039858e-07 -2.3859752e-06 1.2367444e-07)
(-5.1703147e-07 -2.3773487e-06 9.5563347e-08)
(-1.5229442e-06 -1.9828809e-06 5.6638476e-08)
(-2.2732323e-06 -1.2304616e-06 6.5926209e-09)
(-2.7077314e-06 -2.6083332e-07 -4.0927128e-08)
(-2.6900405e-06 8.0081559e-07 -1.0792096e-07)
(-2.155052e-06 1.653358e-06 -1.1874745e-07)
(-1.2438461e-06 2.2107255e-06 -1.0687676e-07)
(-1.0300151e-07 2.3813677e-06 -7.328787e-08)
(1.0765732e-06 2.1435152e-06 -1.825641e-08)
(1.5081751e-06 8.1888989e-07 3.5052669e-08)
(1.9683673e-06 3.0953378e-07 6.0309623e-08)
(2.0457823e-06 -2.3441545e-07 7.753051e-08)
(1.7933628e-06 -7.121651e-07 8.4490108e-08)
(1.2391927e-06 -1.0440546e-06 6.8305766e-08)
(4.8446767e-07 -1.2833492e-06 4.7101744e-08)
(-3.3896093e-07 -1.2407563e-06 2.9086349e-08)
(-1.1033377e-06 -1.0150027e-06 5.4361475e-09)
(-1.6792522e-06 -6.3455109e-07 -2.4851478e-08)
(-1.9913874e-06 -1.7082016e-07 -5.3505582e-08)
(-1.9874635e-06 3.9953235e-07 -7.1258741e-08)
(-1.6291484e-06 8.668923e-07 -7.6052482e-08)
(-9.5983776e-07 1.179788e-06 -6.5969997e-08)
(-1.0875412e-07 1.2868405e-06 -3.7834396e-08)
(7.5879411e-07 1.1764495e-06 1.07432e-08)
(1.2187044e-06 2.5900715e-07 2.9180057e-08)
(1.6235745e-06 8.7438495e-08 6.3671025e-08)
(1.727938e-06 -8.5248115e-08 8.1675505e-08)
(1.5542928e-06 -2.2967676e-07 7.7975952e-08)
(1.065888e-06 -3.2352048e-07 5.8004874e-08)
(4.2314707e-07 -4.0225508e-07 -3.9392792e-09)
(-2.4898724e-07 -3.8430636e-07 -1.3886919e-08)
(-9.1672639e-07 -3.1202523e-07 -2.5032217e-08)
(-1.4287241e-06 -1.9776265e-07 -4.1546798e-08)
(-1.6730736e-06 -6.1875826e-08 -6.3089422e-08)
(-1.6516054e-06 1.1992132e-07 -4.6797404e-08)
(-1.3740407e-06 2.7320467e-07 -5.8869348e-08)
(-8.2324357e-07 3.7423889e-07 -5.3722304e-08)
(-1.0590834e-07 4.0913629e-07 -2.6242367e-08)
(6.0876455e-07 3.7666721e-07 2.2427038e-08)
(0.001769558 -6.7706077e-05 -7.6220287e-05)
(0.0016914106 -0.0001308623 0.00015066189)
(0.00080925231 -0.00015492318 -0.0011201543)
(-3.284432e-05 -8.2341737e-05 -0.0004674228)
(0.0033338153 0.0001588438 0.00097191282)
(0.0016831411 6.7601597e-05 0.00017145401)
(0.0040821913 -0.00055186176 -1.6451376e-05)
(0.0041625837 -0.0024637266 5.8247227e-05)
(0.028165325 -0.0037393053 0.00014315951)
(0.0663972 0.0015851413 -3.8780467e-05)
(0.0011410634 0.0040171585 -7.460487e-05)
(0.0050783409 0.00079792602 0.00027500178)
(0.0017664796 0.00024466189 0.00057574656)
(0.00075654412 0.00024564739 -7.5239662e-06)
(0.0012251473 6.3401521e-05 -0.00050738407)
(0.00038396038 -7.6149019e-05 -4.7427912e-05)
(0.00024382695 -0.00020722227 -4.1538141e-05)
(9.6556439e-06 -0.0002466033 -0.00024837961)
(-8.9782659e-05 -0.00010043608 -9.8365354e-05)
(0.00019566184 0.0001936115 0.00019561178)
(0.00066141963 -7.5294792e-06 8.5842406e-05)
(0.0010312225 -0.00089490266 2.3083929e-05)
(0.000536328 -0.0032620596 1.6734999e-05)
(-0.0017639004 -0.0046063949 1.7543294e-05)
(-0.0027061741 0.0019233732 -1.2426093e-05)
(-0.00041934472 0.0050061168 -1.454877e-06)
(0.00087386335 0.0012383947 8.9286007e-05)
(0.00038187481 0.0004645478 0.00013210967)
(0.00028876906 0.00041917113 7.2316371e-06)
(0.00040525865 0.00014417552 -0.00010861361)
(0.00022626841 3.495437e-06 -2.3482925e-05)
(0.00015992979 -0.00010473657 -3.0548737e-05)
(6.7614112e-05 -0.00013235729 -6.3879896e-05)
(3.6518981e-05 -4.1912341e-05 -2.3573857e-05)
(0.00013702446 1.728333e-05 4.6307817e-05)
(0.00028348868 -0.00014733913 3.2664856e-05)
(0.00030780345 -0.00052328153 1.2046517e-05)
(1.2133048e-05 -0.0010893573 3.9565464e-06)
(-0.00063587634 -0.0011133414 -4.6247923e-07)
(-0.00086936413 0.00041688614 -6.2662715e-06)
(-0.00031732289 0.0012738186 2.555171e-06)
(0.00010462218 0.00064605989 3.4598719e-05)
(0.00011451432 0.00036246482 4.6369085e-05)
(0.0001495781 0.00028778926 6.7745312e-06)
(0.0002230773 0.00014664927 -3.0196082e-05)
(0.0001320169 2.8153981e-05 -9.6753196e-06)
(0.00010731579 -3.5894754e-05 -1.4062451e-05)
(7.2174531e-05 -5.9983318e-05 -1.9432542e-05)
(5.9712544e-05 -4.4776447e-05 -6.5612574e-06)
(8.8632632e-05 -4.4689818e-05 1.2162623e-05)
(0.00012073117 -0.00012655151 1.1603553e-05)
(8.8987395e-05 -0.00027477437 5.1829596e-06)
(-5.3873728e-05 -0.0004116679 4.4081663e-07)
(-0.00026619343 -0.00033304947 -2.6343809e-06)
(-0.0003382603 9.7656845e-05 -2.9926526e-06)
(-0.00019039756 0.00038140735 2.0534909e-06)
(-3.7660302e-05 0.00030420967 1.3167156e-05)
(2.3192405e-05 0.00022774128 1.6909138e-05)
(7.2873633e-05 0.00018574304 5.1933025e-06)
(0.00012074864 0.00011250955 -7.2785973e-06)
(7.7863864e-05 3.089301e-05 -3.7020428e-06)
(7.1792223e-05 -7.3712658e-06 -5.7460927e-06)
(5.8732307e-05 -2.8931601e-05 -6.5542491e-06)
(5.1812409e-05 -3.6631795e-05 -2.2769086e-06)
(5.524879e-05 -5.0413618e-05 3.2981305e-06)
(5.340402e-05 -9.1083802e-05 3.9271713e-06)
(2.2686895e-05 -0.00014610776 1.8479959e-06)
(-4.6142208e-05 -0.00017681578 -4.8400884e-07)
(-0.00012655383 -0.00012380947 -1.9122751e-06)
(-0.00015491223 2.3079613e-05 -1.5646155e-06)
(-0.00011077013 0.00013470747 1.2930601e-06)
(-4.9043769e-05 0.00014837088 5.3429872e-06)
(-3.9525456e-06 0.00013498664 6.8740182e-06)
(3.4346239e-05 0.00011550391 3.5382976e-06)
(6.5488085e-05 7.7884923e-05 -8.1879226e-07)
(4.67607e-05 2.598079e-05 -1.0763901e-06)
(4.7491175e-05 2.4437956e-06 -2.1662404e-06)
(4.2913999e-05 -1.4687597e-05 -2.39289e-06)
(3.8230525e-05 -2.6580973e-05 -9.7280157e-07)
(3.4180624e-05 -4.0100745e-05 8.8281558e-07)
(2.5037017e-05 -6.0470504e-05 1.0845726e-06)
(3.2554019e-06 -8.087278e-05 4.1289072e-07)
(-3.1575457e-05 -8.4891747e-05 -5.0420963e-07)
(-6.6298065e-05 -5.5174319e-05 -1.0249049e-06)
(-7.9743407e-05 4.355708e-06 -7.6978547e-07)
(-6.5106316e-05 5.5341308e-05 7.5452065e-07)
(-3.7381149e-05 7.6177573e-05 2.4066153e-06)
(-9.6746042e-06 7.9015568e-05 3.1019186e-06)
(1.577188e-05 7.1085378e-05 2.1475571e-06)
(3.6137717e-05 5.174659e-05 4.2930401e-07)
(2.8561064e-05 1.9408645e-05 -2.1499456e-07)
(3.1123833e-05 4.720308e-06 -7.3707975e-07)
(2.9707537e-05 -7.8321657e-06 -9.0123396e-07)
(2.6399261e-05 -1.8171348e-05 -4.6786888e-07)
(2.1359258e-05 -2.8300182e-05 1.1118381e-07)
(1.2631982e-05 -3.8848802e-05 2.2369585e-07)
(-1.7343528e-06 -4.6528697e-05 -3.8758272e-08)
(-2.0443754e-05 -4.4567901e-05 -3.949919e-07)
(-3.7306386e-05 -2.8035663e-05 -5.3271918e-07)
(-4.4396617e-05 -2.8625823e-07 -2.9856524e-07)
(-3.8948279e-05 2.5712076e-05 4.1554497e-07)
(-2.536952e-05 4.107453e-05 1.1790316e-06)
(-9.0447527e-06 4.6473571e-05 1.5634985e-06)
(7.0772507e-06 4.3757737e-05 1.2807933e-06)
(2.038349e-05 3.3789575e-05 5.5329709e-07)
(1.7691431e-05 1.3667146e-05 1.4983234e-08)
(2.0250363e-05 4.4005017e-06 -2.3992256e-07)
(2.0022342e-05 -4.2876013e-06 -3.605079e-07)
(1.7762508e-05 -1.1973474e-05 -2.5875134e-07)
(1.3503171e-05 -1.8910913e-05 -1.0242695e-07)
(6.8085016e-06 -2.4723817e-05 -6.8998872e-08)
(-2.4636993e-06 -2.7659274e-05 -1.5255649e-07)
(-1.3082426e-05 -2.5077903e-05 -2.6302345e-07)
(-2.2016425e-05 -1.5591098e-05 -2.5969208e-07)
(-2.5995672e-05 -1.1972793e-06 -8.5749358e-08)
(-2.3745532e-05 1.3035508e-05 2.8450374e-07)
(-1.6619658e-05 2.3012694e-05 6.3592721e-07)
(-6.9914001e-06 2.7649017e-05 8.4942455e-07)
(3.0878807e-06 2.7076529e-05 7.689877e-07)
(1.1788621e-05 2.188136e-05 4.3763455e-07)
(1.1080205e-05 9.298485e-06 7.9869249e-08)
(1.3169085e-05 3.4846356e-06 -6.314459e-08)
(1.3333561e-05 -2.3336498e-06 -1.4155109e-07)
(1.1775949e-05 -7.7121155e-06 -1.5083804e-07)
(8.6089147e-06 -1.2351314e-05 -1.2764731e-07)
(3.8836204e-06 -1.571447e-05 -1.3469468e-07)
(-2.0884392e-06 -1.688266e-05 -1.5509573e-07)
(-8.3755791e-06 -1.4807661e-05 -1.71458e-07)
(-1.3425764e-05 -9.1943795e-06 -1.3406898e-07)
(-1.5770012e-05 -1.211689e-06 -4.0711893e-08)
(-1.4738307e-05 6.982903e-06 1.9160175e-07)
(-1.0756012e-05 1.3278406e-05 3.7493493e-07)
(-4.9809187e-06 1.6660592e-05 4.9433002e-07)
(1.3095921e-06 1.6846462e-05 4.6479874e-07)
(6.9741052e-06 1.4123838e-05 3.1172104e-07)
(7.052228e-06 6.1614022e-06 1.0974486e-07)
(8.6182277e-06 2.5227449e-06 2.4800938e-08)
(8.8255903e-06 -1.3265862e-06 -5.5770312e-08)
(7.744843e-06 -4.9552132e-06 -9.0717568e-08)
(5.5008164e-06 -7.9872431e-06 -8.5896474e-08)
(2.2771561e-06 -9.9890309e-06 -7.2349197e-08)
(-1.5568905e-06 -1.0474699e-05 -1.0891571e-07)
(-5.3941462e-06 -8.9956919e-06 -1.1503078e-07)
(-8.4204541e-06 -5.5855384e-06 -8.1411009e-08)
(-9.8183894e-06 -9.3397751e-07 -1.8553672e-08)
(-9.255437e-06 3.9185667e-06 1.1010548e-07)
(-6.9419699e-06 7.8728511e-06 2.1805892e-07)
(-3.4233448e-06 1.0155452e-05 2.5924948e-07)
(5.5112684e-07 1.0500336e-05 2.4088582e-07)
(4.2406442e-06 9.0562558e-06 2.0310151e-07)
(4.5466942e-06 3.9709014e-06 1.0984795e-07)
(5.6810966e-06 1.6794843e-06 7.9676046e-08)
(5.855603e-06 -8.2653892e-07 2.4077964e-08)
(5.1152922e-06 -3.2078877e-06 -1.7413873e-08)
(3.5750969e-06 -5.1558343e-06 -2.2439005e-08)
(1.396164e-06 -6.3470544e-06 -7.1627597e-08)
(-1.0951002e-06 -6.540926e-06 -1.0044646e-07)
(-3.4864182e-06 -5.5457395e-06 -1.1191114e-07)
(-5.3640495e-06 -3.4293572e-06 -7.5674655e-08)
(-6.2659065e-06 -5.7342018e-07 -4.8586848e-09)
(-5.9314786e-06 2.3474566e-06 5.7523732e-08)
(-4.5191265e-06 4.7761553e-06 1.2611488e-07)
(-2.3534335e-06 6.2396138e-06 1.507841e-07)
(2.1039533e-07 6.5355709e-06 1.5631065e-07)
(2.6351709e-06 5.7020944e-06 1.5743722e-07)
(3.0296179e-06 2.4997728e-06 9.7033388e-08)
(3.8207873e-06 1.0672609e-06 5.3762434e-08)
(3.9382183e-06 -5.3087411e-07 3.0149007e-09)
(3.4155476e-06 -2.0543262e-06 -3.2962522e-08)
(2.3616496e-06 -3.2823284e-06 -4.3836062e-08)
(8.9206437e-07 -3.9995494e-06 -8.3127231e-08)
(-7.5557563e-07 -4.0624171e-06 -7.0094647e-08)
(-2.2825774e-06 -3.4139779e-06 -5.5248312e-08)
(-3.4481349e-06 -2.1069162e-06 -3.0978099e-08)
(-4.0415756e-06 -3.5561231e-07 -7.4202721e-09)
(-3.9058615e-06 1.4325852e-06 5.2527355e-08)
(-3.0498127e-06 2.8908195e-06 7.4272379e-08)
(-1.6639293e-06 3.8057303e-06 9.2035808e-08)
(1.3607421e-08 4.0250728e-06 1.1294942e-07)
(1.6759747e-06 3.5323068e-06 1.2674326e-07)
(2.0816482e-06 1.5135577e-06 9.052758e-08)
(2.6504498e-06 6.2839731e-07 4.1141605e-08)
(2.7340159e-06 -3.5481937e-07 -4.5715266e-09)
(2.3638379e-06 -1.2801349e-06 -3.996532e-08)
(1.6298736e-06 -2.0055534e-06 -6.6607748e-08)
(6.160753e-07 -2.420825e-06 -9.108436e-08)
(-5.0952868e-07 -2.4191762e-06 -6.928029e-08)
(-1.5309172e-06 -2.0092769e-06 -4.3456157e-08)
(-2.305684e-06 -1.2381481e-06 -2.2617987e-08)
(-2.7264051e-06 -2.4473724e-07 -1.576174e-08)
(-2.6850468e-06 8.0293501e-07 2.535185e-08)
(-2.1459815e-06 1.6769995e-06 5.0206471e-08)
(-1.2191802e-06 2.2378058e-06 6.967828e-08)
(-6.302815e-08 2.3978468e-06 8.8845798e-08)
(1.1098709e-06 2.1430455e-06 1.0495953e-07)
(1.5149698e-06 8.1107481e-07 7.6148809e-08)
(1.9524102e-06 3.2151196e-07 4.5179575e-08)
(2.029686e-06 -2.1163293e-07 1.3992484e-08)
(1.7648134e-06 -7.05302e-07 -2.7479388e-08)
(1.2209593e-06 -1.0764585e-06 -8.1119692e-08)
(4.7844133e-07 -1.2991475e-06 -9.0459956e-08)
(-3.4402763e-07 -1.2758358e-06 -8.573849e-08)
(-1.1015493e-06 -1.0495866e-06 -6.1918027e-08)
(-1.6835952e-06 -6.5197664e-07 -3.3410226e-08)
(-2.0004925e-06 -1.5508995e-07 -8.0673046e-09)
(-1.9841247e-06 4.0084963e-07 1.2033407e-08)
(-1.6149418e-06 8.681032e-07 3.4363518e-08)
(-9.4308181e-07 1.1762268e-06 4.7269639e-08)
(-8.1152744e-08 1.2780909e-06 6.1023957e-08)
(7.9168574e-07 1.1574983e-06 7.3022365e-08)
(1.2454792e-06 2.5379239e-07 6.5091603e-08)
(1.6272804e-06 9.7446861e-08 5.6038045e-08)
(1.7065431e-06 -7.0805047e-08 3.0531607e-08)
(1.4982696e-06 -2.24976e-07 -2.156383e-08)
(1.0353283e-06 -3.3656546e-07 -9.5643881e-08)
(4.1615303e-07 -4.0989162e-07 -9.3346035e-08)
(-2.6026418e-07 -3.9832692e-07 -9.6698208e-08)
(-9.0704565e-07 -3.2587882e-07 -7.3719043e-08)
(-1.4108648e-06 -2.0389213e-07 -3.6855257e-08)
(-1.6730033e-06 -5.3527045e-08 6.752698e-09)
(-1.6611275e-06 1.2296747e-07 1.2357209e-08)
(-1.3698511e-06 2.6869782e-07 2.0960441e-08)
(-8.0854556e-07 3.6727756e-07 3.071842e-08)
(-8.1334434e-08 4.0258134e-07 4.3791673e-08)
(6.4298293e-07 3.6668982e-07 5.0592007e-08)
(0.0018027007 -1.5195629e-06 -0.00013626665)
(0.00092072353 -0.00039724612 -0.00014653133)
(0.0077773126 -4.6105391e-05 -0.00027723664)
(0.00047846744 0.00033960385 -0.00018840755)
(0.0014406371 7.2531637e-05 0.00039158476)
(0.0010625061 -5.5768788e-05 0.00012380218)
(0.0018503145 -0.00026871914 -0.00091823969)
(0.00082575204 -0.00068496827 -0.0030866639)
(-0.0017059887 -0.00085197543 -0.0044954542)
(-0.001492099 0.0003012494 0.0018276776)
(0.00029513788 0.00082490928 0.0049681644)
(0.0021635417 -0.00015513773 0.0015923393)
(0.0061546424 -0.00017708339 0.00056621857)
(0.0058786328 0.00057828723 -8.8922106e-05)
(0.0012766605 0.00051219362 -0.0001666233)
(0.0004856431 1.487717e-05 -5.264163e-05)
(0.00019713627 -0.00048814712 -8.6847491e-05)
(-8.0855318e-05 -8.1555961e-05 -0.00013121951)
(3.6744115e-05 0.00038982299 -5.9127837e-05)
(0.00029207827 7.5329748e-05 7.6344218e-05)
(0.00045410992 -0.00014037817 -4.5837215e-05)
(0.00052281289 -0.00050015395 -0.0003791459)
(0.0001053131 -0.0011000473 -0.00087571568)
(-0.0010015542 -0.0012359189 -0.00096209772)
(-0.0013830728 0.00042322752 0.00038615104)
(-0.00028925863 0.0012286497 0.0011590585)
(0.00031120236 1.0194874e-05 0.00063461184)
(-4.4421482e-05 -6.7319587e-05 0.0002887168)
(8.8079671e-06 0.00079136344 6.5727211e-05)
(0.00039644757 0.00067473907 -2.3509102e-05)
(0.00023207253 3.9331617e-05 -1.8352407e-05)
(0.00014511336 -0.00011186422 -3.9332767e-05)
(5.8105878e-05 -5.6743085e-05 -5.3558518e-05)
(7.4778881e-05 4.313185e-05 -3.3139584e-05)
(0.0001569507 -2.2799961e-05 1.6419565e-06)
(0.00021979322 -0.00015717725 -4.2949078e-05)
(0.00019208208 -0.00037490038 -0.00015241836)
(-4.7234475e-05 -0.00061804129 -0.0002635192)
(-0.00046457472 -0.00054075567 -0.00023381505)
(-0.00059596716 0.00016147711 8.740548e-05)
(-0.00024594865 0.00057042309 0.00030412865)
(1.6911861e-05 0.00028840133 0.00023874592)
(-1.0336954e-07 0.00021000039 0.0001394112)
(5.8341635e-05 0.00032994469 5.7366986e-05)
(0.00019968255 0.00024791308 8.2656057e-06)
(0.00012574459 4.3282842e-05 -4.4000593e-06)
(0.00010088774 -2.3525224e-05 -1.6589185e-05)
(7.1981289e-05 -3.3415589e-05 -2.3182048e-05)
(7.0472254e-05 -2.3202154e-05 -1.8655771e-05)
(9.1470148e-05 -5.3798663e-05 -1.2338359e-05)
(0.00010192547 -0.00012490504 -2.8894408e-05)
(6.1686639e-05 -0.00022581657 -6.2017002e-05)
(-6.0579267e-05 -0.00030101139 -8.7269052e-05)
(-0.00022211187 -0.00022433846 -6.5300992e-05)
(-0.00027247529 5.0361276e-05 2.3973719e-05)
(-0.00016238345 0.0002359036 9.1867428e-05)
(-4.9523491e-05 0.00019668474 9.2168171e-05)
(-6.2922603e-06 0.00016968916 6.5756313e-05)
(4.3459397e-05 0.00018513138 3.5644214e-05)
(0.00010573835 0.00013581077 1.2031758e-05)
(7.2736434e-05 3.6398752e-05 2.3746098e-07)
(6.841486e-05 -1.8146333e-07 -6.6000781e-06)
(5.8428395e-05 -1.8992169e-05 -1.0531385e-05)
(5.4395733e-05 -2.9893529e-05 -1.0706708e-05)
(5.5247716e-05 -5.0891607e-05 -1.0715661e-05)
(4.7775266e-05 -8.7567324e-05 -1.6995643e-05)
(1.5975604e-05 -0.00012956134 -2.6954442e-05)
(-4.5756424e-05 -0.00014756614 -3.1854847e-05)
(-0.00011320214 -9.9524589e-05 -2.0820077e-05)
(-0.00013572532 1.3048471e-05 7.7289369e-06)
(-9.9625182e-05 9.9886192e-05 3.1960951e-05)
(-4.9302549e-05 0.00011508986 3.770324e-05)
(-1.1658114e-05 0.00011306243 3.142707e-05)
(2.4461973e-05 0.00010963671 2.0392283e-05)
(5.7833843e-05 8.1731319e-05 9.480994e-06)
(4.383179e-05 2.7668627e-05 1.4000295e-06)
(4.5496809e-05 5.5451735e-06 -2.4816046e-06)
(4.226922e-05 -1.0797775e-05 -5.0380682e-06)
(3.8572817e-05 -2.3769908e-05 -6.1290746e-06)
(3.3796354e-05 -3.8976038e-05 -7.1260067e-06)
(2.3255738e-05 -5.79821e-05 -9.6160253e-06)
(1.6878158e-06 -7.4697229e-05 -1.2557251e-05)
(-3.0542536e-05 -7.597533e-05 -1.2834287e-05)
(-6.149728e-05 -4.8644228e-05 -7.4828641e-06)
(-7.3064534e-05 1.9630953e-06 2.9662512e-06)
(-6.0342082e-05 4.5373952e-05 1.2591734e-05)
(-3.6347267e-05 6.4784069e-05 1.6538969e-05)
(-1.1745438e-05 7.0131393e-05 1.5407647e-05)
(1.2128261e-05 6.6860328e-05 1.1306174e-05)
(3.2500365e-05 5.129092e-05 6.2617921e-06)
(2.6990682e-05 1.9729516e-05 1.3203033e-06)
(2.9948455e-05 5.9107656e-06 -8.7221881e-07)
(2.9113313e-05 -6.1943674e-06 -2.4871488e-06)
(2.621747e-05 -1.6778898e-05 -3.4816268e-06)
(2.1035523e-05 -2.7272945e-05 -4.3086795e-06)
(1.2054074e-05 -3.7303495e-05 -5.3677617e-06)
(-2.0176288e-06 -4.3898542e-05 -6.1577829e-06)
(-1.9703428e-05 -4.1419659e-05 -5.6590222e-06)
(-3.5263722e-05 -2.5965344e-05 -3.0086912e-06)
(-4.1707152e-05 -9.5443943e-07 1.3441011e-06)
(-3.6804217e-05 2.2324164e-05 5.4906127e-06)
(-2.4545116e-05 3.6661528e-05 7.7112782e-06)
(-9.5818651e-06 4.2555201e-05 7.7617314e-06)
(5.6214906e-06 4.1304442e-05 6.2043955e-06)
(1.8642134e-05 3.2900678e-05 3.833547e-06)
(1.6841876e-05 1.3633828e-05 9.7382679e-07)
(1.9572925e-05 4.8525269e-06 -2.6038432e-07)
(1.9579556e-05 -3.5479203e-06 -1.2455155e-06)
(1.7494239e-05 -1.1237411e-05 -1.9693265e-06)
(1.3271757e-05 -1.8205447e-05 -2.5352876e-06)
(6.630139e-06 -2.3814296e-05 -3.0009519e-06)
(-2.4283493e-06 -2.6440875e-05 -3.155881e-06)
(-1.2609339e-05 -2.3800606e-05 -2.6750327e-06)
(-2.1032064e-05 -1.4819517e-05 -1.3080805e-06)
(-2.4775029e-05 -1.466652e-06 6.7251346e-07)
(-2.2726117e-05 1.1720724e-05 2.6010735e-06)
(-1.6116233e-05 2.1131691e-05 3.7951674e-06)
(-7.102527e-06 2.580474e-05 4.0388902e-06)
(2.4737344e-06 2.5727188e-05 3.4356832e-06)
(1.0925436e-05 2.1226674e-05 2.3048197e-06)
(1.0616535e-05 9.2019337e-06 6.7358864e-07)
(1.2766706e-05 3.6452756e-06 -3.1765038e-08)
(1.3023374e-05 -2.0019812e-06 -6.3360956e-07)
(1.1559944e-05 -7.3049236e-06 -1.1085957e-06)
(8.4586382e-06 -1.1882095e-05 -1.4571321e-06)
(3.8186452e-06 -1.5156977e-05 -1.6824549e-06)
(-2.0039393e-06 -1.6262697e-05 -1.6730092e-06)
(-8.0820713e-06 -1.4224368e-05 -1.3302745e-06)
(-1.2929768e-05 -8.8769493e-06 -6.0731736e-07)
(-1.5166913e-05 -1.3466354e-06 3.5155182e-07)
(-1.4205875e-05 6.4078016e-06 1.3245609e-06)
(-1.0461102e-05 1.2409944e-05 1.970732e-06)
(-4.9863691e-06 1.5731281e-05 2.1658773e-06)
(1.0434237e-06 1.6090716e-05 1.9140526e-06)
(6.5487732e-06 1.3679791e-05 1.3722975e-06)
(6.8073606e-06 6.0547037e-06 4.2981358e-07)
(8.3690101e-06 2.5685187e-06 2.1546179e-08)
(8.6293563e-06 -1.1701475e-06 -3.3881524e-07)
(7.6141254e-06 -4.7228021e-06 -6.2772702e-07)
(5.4197041e-06 -7.7027541e-06 -8.3228913e-07)
(2.2495367e-06 -9.6606085e-06 -9.4398633e-07)
(-1.4957413e-06 -1.0142376e-05 -9.0296916e-07)
(-5.2235919e-06 -8.7143181e-06 -6.8729501e-07)
(-8.154331e-06 -5.442919e-06 -2.8896152e-07)
(-9.4902784e-06 -9.7820318e-07 2.2457057e-07)
(-8.9695383e-06 3.6294857e-06 7.5876657e-07)
(-6.7927542e-06 7.4339362e-06 1.0829606e-06)
(-3.4217558e-06 9.6648771e-06 1.1869202e-06)
(4.2224469e-07 1.0082892e-05 1.0672436e-06)
(4.0366534e-06 8.7767657e-06 7.7374904e-07)
(4.4082876e-06 3.8943375e-06 2.4649674e-07)
(5.5418551e-06 1.6885858e-06 3.2881475e-08)
(5.7320535e-06 -7.4855898e-07 -1.7621086e-07)
(5.0273369e-06 -3.0875711e-06 -3.5633406e-07)
(3.5208318e-06 -5.0122699e-06 -4.9020368e-07)
(1.3790236e-06 -6.1896035e-06 -5.4073265e-07)
(-1.0576489e-06 -6.3736788e-06 -5.044979e-07)
(-3.3826148e-06 -5.4080384e-06 -3.7325262e-07)
(-5.1936537e-06 -3.3611951e-06 -1.3802951e-07)
(-6.094508e-06 -6.0717905e-07 1.8258836e-07)
(-5.7937361e-06 2.1899241e-06 4.0938225e-07)
(-4.4257105e-06 4.542397e-06 5.9844727e-07)
(-2.3374131e-06 5.9831283e-06 6.7096293e-07)
(1.553122e-07 6.3149823e-06 6.247349e-07)
(2.5205845e-06 5.5540471e-06 4.7122039e-07)
(2.9418992e-06 2.4596162e-06 1.658035e-07)
(3.7261136e-06 1.0607383e-06 3.2030877e-08)
(3.8531994e-06 -5.0000027e-07 -1.0143458e-07)
(3.3504145e-06 -2.0021191e-06 -2.2189391e-07)
(2.3176717e-06 -3.2246798e-06 -3.1344275e-07)
(8.881278e-07 -3.9362859e-06 -3.5192665e-07)
(-7.141762e-07 -3.9859773e-06 -3.1532155e-07)
(-2.2111082e-06 -3.3480402e-06 -2.2434517e-07)
(-3.3534717e-06 -2.0796443e-06 -8.099668e-08)
(-3.9391592e-06 -3.9992439e-07 9.0711927e-08)
(-3.8199623e-06 1.3551022e-06 2.3620503e-07)
(-2.99955e-06 2.7697394e-06 3.4462062e-07)
(-1.6491706e-06 3.6700871e-06 3.8735173e-07)
(-6.8365193e-09 3.9019458e-06 3.6814492e-07)
(1.6160086e-06 3.4470546e-06 2.9361483e-07)
(2.0219713e-06 1.4873525e-06 1.1435599e-07)
(2.5822386e-06 6.282274e-07 2.5959803e-08)
(2.669196e-06 -3.3255016e-07 -6.4279919e-08)
(2.3026574e-06 -1.2518486e-06 -1.5558727e-07)
(1.586665e-06 -1.9847138e-06 -2.3189884e-07)
(6.1772604e-07 -2.3933079e-06 -2.6343192e-07)
(-4.6940327e-07 -2.3929926e-06 -2.2850072e-07)
(-1.4762819e-06 -1.9895506e-06 -1.5948019e-07)
(-2.2455378e-06 -1.2328937e-06 -6.1836005e-08)
(-2.6597615e-06 -2.6148036e-07 4.3469653e-08)
(-2.6240723e-06 7.6032164e-07 1.4412048e-07)
(-2.1107256e-06 1.6134491e-06 2.1258802e-07)
(-1.2052068e-06 2.1659593e-06 2.4026574e-07)
(-6.7720261e-08 2.3294422e-06 2.3239746e-07)
(1.078255e-06 2.0897943e-06 1.9032168e-07)
(1.4803323e-06 7.9349497e-07 7.393648e-08)
(1.906211e-06 3.2447109e-07 1.76915e-08)