/*--------------------------------*- C++ -*----------------------------------*\
| =========                 |                                                 |
| \\      /  F ield         | OpenFOAM: The Open Source CFD Toolbox           |
|  \\    /   O peration     | Version:  3.0.1                                 |
|   \\  /    A nd           | Web:      www.OpenFOAM.org                      |
|    \\/     M anipulation  |                                                 |
\*---------------------------------------------------------------------------*/
FoamFile
{
    version     2.0;
    format      ascii;
    class       volScalarField;
    location    "0.1";
    object      p;
}
// * * * * * * * * * * * * * * * * * * * * * * * * * * * * * * * * * * * * * //

dimensions      [0 2 -2 0 0 0 0];

internalField   nonuniform List<scalar> 
125
(
-0.058162094
-0.056484844
-0.053528983
-0.05030454
-0.048001574
-0.056157093
-0.054964843
-0.053138052
-0.051185466
-0.049694104
-0.054922919
-0.054103646
-0.052938646
-0.051709049
-0.050733609
-0.05414392
-0.053588244
-0.052830611
-0.052039986
-0.051400286
-0.053642495
-0.053264836
-0.052771519
-0.05226256
-0.051843456
-0.057612996
-0.05606601
-0.053481985
-0.050684569
-0.048614533
-0.055878437
-0.054764775
-0.053100757
-0.051337627
-0.049974541
-0.054779888
-0.053998679
-0.052911262
-0.05177438
-0.050872716
-0.054071554
-0.053533192
-0.05281408
-0.052071512
-0.051473581
-0.053606621
-0.053239858
-0.052765157
-0.052278622
-0.051880299
-0.057277671
-0.055694909
-0.053257695
-0.050697593
-0.048787131
-0.055717481
-0.054583992
-0.052968567
-0.051303415
-0.050029282
-0.054698967
-0.053905958
-0.052836177
-0.051742585
-0.050886019
-0.05403043
-0.05348469
-0.052772473
-0.052050008
-0.051474888
-0.053587733
-0.053215607
-0.052742231
-0.052265162
-0.051881504
-0.057276828
-0.055422044
-0.052815422
-0.05023071
-0.048404866
-0.055726013
-0.054452958
-0.052742433
-0.051048327
-0.049806846
-0.054706302
-0.053842366
-0.052718788
-0.051602873
-0.05075631
-0.054033898
-0.053450954
-0.052709216
-0.051972771
-0.051401477
-0.053590019
-0.053196747
-0.052706874
-0.052222544
-0.051840988
-0.057693406
-0.05533214
-0.052218547
-0.049332497
-0.04750572
-0.055932668
-0.054410284
-0.052453871
-0.050604323
-0.049338203
-0.054810277
-0.053822008
-0.052574315
-0.051374304
-0.050505295
-0.054085487
-0.053438216
-0.052632963
-0.051851988
-0.051262966
-0.05361634
-0.053188981
-0.052666732
-0.052158099
-0.051761838
)
;

boundaryField
{
    movingWall
    {
        type            zeroGradient;
    }
    CPLReceiveMD
    {
        type            zeroGradient;
    }
    streamwiseIn
    {
        type            cyclic;
    }
    streamwiseOut
    {
        type            cyclic;
    }
    front
    {
        type            cyclic;
    }
    back
    {
        type            cyclic;
    }
    procBoundary14to5
    {
        type            processor;
        value           nonuniform List<scalar> 
25
(
-0.058783255
-0.056894463
-0.053493456
-0.049784064
-0.047194958
-0.056473595
-0.055159655
-0.053115646
-0.050937648
-0.049295197
-0.05508107
-0.054198141
-0.052924203
-0.051582991
-0.050526082
-0.054222918
-0.0536324
-0.052818472
-0.051970834
-0.051287362
-0.05368936
-0.053286692
-0.05276125
-0.052221028
-0.051778229
)
;
    }
    procBoundary14to11
    {
        type            processor;
        value           nonuniform List<scalar> 
25
(
-0.061544714
-0.059328785
-0.05429576
-0.048674803
-0.045132296
-0.060405895
-0.058365207
-0.054251064
-0.049677623
-0.046521554
-0.059683666
-0.057547581
-0.053877934
-0.049927497
-0.047008169
-0.059648365
-0.056973401
-0.053023449
-0.049092948
-0.046359016
-0.060491525
-0.05675747
-0.051762316
-0.047238912
-0.04461675
)
;
    }
    procBoundary14to12throughstreamwiseOut
    {
        type            processorCyclic;
        value           nonuniform List<scalar> 
25
(
-0.047071961
-0.048965108
-0.050207687
-0.051035414
-0.051592923
-0.04771424
-0.049289223
-0.050379052
-0.051127827
-0.051641589
-0.047946881
-0.049402602
-0.050430934
-0.051150934
-0.051652683
-0.04770953
-0.049258856
-0.050343921
-0.051098963
-0.051619712
-0.047038857
-0.048886143
-0.0501403
-0.050986351
-0.051550623
)
;
    }
    procBoundary14to13
    {
        type            processor;
        value           nonuniform List<scalar> 
25
(
-0.058396955
-0.056518293
-0.055246365
-0.054396869
-0.053838838
-0.057896492
-0.056249504
-0.055109244
-0.054328545
-0.053798914
-0.057688273
-0.056143102
-0.055058149
-0.054304695
-0.053786733
-0.057918784
-0.056268238
-0.055125699
-0.054341772
-0.053807952
-0.058650209
-0.056638851
-0.055314519
-0.054440209
-0.053860546
)
;
    }
    procBoundary14to17
    {
        type            processor;
        value           nonuniform List<scalar> 
25
(
-0.053323487
-0.053064873
-0.052740215
-0.052408726
-0.052131711
-0.053302824
-0.053054372
-0.052739704
-0.052418028
-0.052152036
-0.053292945
-0.053042288
-0.052727185
-0.052409621
-0.052151724
-0.053295649
-0.053032083
-0.052706745
-0.052384209
-0.052125447
-0.05331125
-0.053028214
-0.052683589
-0.052345258
-0.052077787
)
;
    }
    procBoundary14to23
    {
        type            processor;
        value           nonuniform List<scalar> 
25
(
-0.058497994
-0.055467425
-0.051600935
-0.04819576
-0.046296796
-0.056311303
-0.05447819
-0.05217195
-0.050072295
-0.048744403
-0.054992555
-0.053852226
-0.052437251
-0.05111631
-0.050212452
-0.054176958
-0.053451345
-0.052561728
-0.051717648
-0.05110982
-0.05366216
-0.053193974
-0.052624692
-0.052077138
-0.05166538
)
;
    }
}


// ************************************************************************* //
