/*--------------------------------*- C++ -*----------------------------------*\
| =========                 |                                                 |
| \\      /  F ield         | OpenFOAM: The Open Source CFD Toolbox           |
|  \\    /   O peration     | Version:  3.0.1                                 |
|   \\  /    A nd           | Web:      www.OpenFOAM.org                      |
|    \\/     M anipulation  |                                                 |
\*---------------------------------------------------------------------------*/
FoamFile
{
    version     2.0;
    format      ascii;
    class       surfaceScalarField;
    location    "0.1";
    object      phi;
}
// * * * * * * * * * * * * * * * * * * * * * * * * * * * * * * * * * * * * * //

dimensions      [0 3 -1 0 0 0 0];

internalField   nonuniform List<scalar> 
300
(
-0.0033513726
-0.0040098213
-0.0010984528
-0.0059074567
-0.0030401212
-0.00083801307
-0.0064445094
-0.00078199365
-9.4464747e-05
-0.0046027023
0.0017617473
0.00075954449
0.0033846704
0.0012255404
-0.0023816654
-0.0024676238
-0.00055745125
-0.0036501257
-0.001722201
-0.00040036911
-0.0039017458
-0.00039904038
-7.489281e-05
-0.0029800408
0.0010465543
0.00030400375
0.0020779204
0.00056061301
-0.0016363006
-0.0015571533
-0.0002861052
-0.0023273253
-0.0010305136
-0.00021003022
-0.0024565765
-0.00021630702
-5.4917e-05
-0.0019488064
0.00066114058
0.00013048091
0.0013321571
0.00027802437
-0.0011097021
-0.0010020651
-0.00014472827
-0.001513296
-0.00064650346
-0.00011012595
-0.0015793277
-0.00011837486
-3.3124143e-05
-0.0012778699
0.00044448197
6.2951879e-05
0.00088527373
0.00014645778
-0.0007541541
-7.1725669e-05
-0.00098524937
-4.9956106e-05
-0.0010165628
-1.2749834e-05
-0.00083711763
3.2071214e-05
7.3608925e-05
-0.0030908691
-0.0034686666
-0.00067087665
-0.0051639677
-0.0026023356
-0.00074260208
-0.0055906243
-0.00076249743
-0.00044911371
-0.0041367361
0.0013059084
2.552407e-05
0.0027194604
0.0003447832
-0.0022245753
-0.0021962088
-0.00032211945
-0.0033246694
-0.0015318022
-0.00036187983
-0.0035228881
-0.00037907851
-0.00026474919
-0.0027234545
0.00087293714
-6.8768612e-05
0.0017952418
0.00010924609
-0.0015602288
-0.0014157393
-0.00016195346
-0.0021722292
-0.0009305745
-0.00018561159
-0.0022712014
-0.00019450438
-0.00015037013
-0.0018012793
0.00059358793
-6.3778104e-05
0.0012005532
2.6476601e-05
-0.001075102
-0.0009290494
-8.2291482e-05
-0.0014363047
-0.00058631835
-9.7073855e-05
-0.0014832645
-9.7992483e-05
-8.329949e-05
-0.0011943739
0.00041359738
-4.3094318e-05
0.00081241356
2.5518456e-06
-0.00073238464
-3.7789199e-05
-0.00094804809
-4.8521009e-05
-0.00097174822
-4.5873644e-05
-0.00079558514
-2.6945757e-05
2.3795525e-06
-0.0031624542
-0.0031198038
-1.881541e-06
-0.004870452
-0.0022215358
-0.00054606575
-0.0051160644
-0.00057820609
-0.00088497753
-0.0038174757
0.001211416
-0.00093416536
0.0024837397
-0.00076476936
-0.0022642856
-0.0020359952
1.6804765e-05
-0.0032275222
-0.0013554975
-0.00026240131
-0.003326926
-0.00026471281
-0.0004526334
-0.0025454666
0.00087786235
-0.00051046562
0.001712415
-0.00044499427
-0.0015838662
-0.0013360465
1.4472393e-05
-0.0021369799
-0.00084200884
-0.00012741088
-0.0021846162
-0.00012742324
-0.00023499653
-0.0017110385
0.00061426144
-0.00027957037
0.001176606
-0.00025944057
-0.0010898754
-0.00088453125
6.8211512e-06
-0.0014225271
-0.00053774877
-6.7587875e-05
-0.0014430621
-6.055516e-05
-0.00012660947
-0.0011487343
0.00042974872
-0.00015451974
0.00081223618
-0.00014680106
-0.00074311248
4.514269e-06
-0.0009453995
-3.7762835e-05
-0.00095282146
-7.0735381e-05
-0.00076626264
-8.5230498e-05
-8.0997407e-05
-0.0037065151
-0.0031011055
0.00083309354
-0.0052093052
-0.0019378105
-0.00017994405
-0.0051652686
-0.00014580793
-0.0011939298
-0.0036481119
0.0016351496
-0.0017966032
0.0028035466
-0.0017984073
-0.0025434313
-0.0020383248
0.00041311716
-0.0034177158
-0.001220481
-8.5588583e-05
-0.0033847576
-4.7039708e-05
-0.00057737121
-0.0024800225
0.0011087874
-0.00088818602
0.0018980023
-0.0009373239
-0.0017257231
-0.0013436919
0.00020775221
-0.002244546
-0.00078216676
-4.0923982e-05
-0.002229187
-1.9008991e-05
-0.00028911723
-0.0016909212
0.00073933872
-0.00045721943
0.0012892681
-0.00050198664
-0.0011642731
-0.00088683121
0.00010303638
-0.0014815397
-0.00050790979
-2.5603311e-05
-0.0014709703
-4.6622273e-06
-0.0001525877
-0.0011410216
0.00049905616
-0.00024157565
0.00087805327
-0.00027693725
-0.00078538505
5.2552479e-05
-0.00097836827
-1.5592876e-05
-0.0009673155
-8.0308345e-05
-0.0007620323
-0.00012886175
-0.00015820387
-0.0047194417
-0.003521164
-0.0062231746
-0.0018434027
-0.0057678436
0.00047092889
-0.0036499262
0.0025437957
0.0036648112
-0.003042096
-0.0022437311
-0.003909442
-0.0011757858
-0.0036955275
0.00024130787
-0.0025291452
0.0015398858
0.0023334245
-0.0019743725
-0.0014484235
-0.0024927083
-0.00076682367
-0.0023972676
0.00011757729
-0.001735685
0.00095505468
0.0015143733
-0.0012928981
-0.00093731951
-0.0016085084
-0.00049788795
-0.0015599486
6.7642711e-05
-0.0011763842
0.0006118022
0.00099681199
-0.00085352347
-0.0010430763
-0.0010158648
-0.00079137618
)
;

boundaryField
{
    movingWall
    {
        type            calculated;
        value           nonuniform 0();
    }
    CPLReceiveMD
    {
        type            calculated;
        value           nonuniform 0();
    }
    streamwiseIn
    {
        type            cyclic;
        value           nonuniform 0();
    }
    streamwiseOut
    {
        type            cyclic;
        value           nonuniform 0();
    }
    front
    {
        type            cyclic;
        value           nonuniform 0();
    }
    back
    {
        type            cyclic;
        value           nonuniform 0();
    }
    procBoundary14to5
    {
        type            processor;
        value           nonuniform List<scalar> 
25
(
0.0012426268
0.00081940441
-7.0887201e-05
-0.0010407614
-0.0016131667
0.00063316431
0.00038971133
-4.4719524e-05
-0.00049553339
-0.00079770521
0.00031638076
0.00018903053
-2.883134e-05
-0.00025203514
-0.00041493804
0.00015801874
8.8329124e-05
-2.4232451e-05
-0.00013822518
-0.00022573062
9.3700534e-05
4.3713139e-05
-2.0498353e-05
-8.2988371e-05
-0.00013034491
)
;
    }
    procBoundary14to11
    {
        type            processor;
        value           nonuniform List<scalar> 
25
(
0.0067660953
0.0056888279
0.0015335485
-0.0032605449
-0.0057396684
0.0055862624
0.0045989292
0.0015382767
-0.0020143179
-0.0041865215
0.0048123949
0.0037057602
0.0012407364
-0.0015402135
-0.0035582895
0.0047436834
0.0031031669
0.00041633467
-0.0022755473
-0.0040921194
0.0055972171
0.0028513336
-0.00091221874
-0.0041874319
-0.0057786937
)
;
    }
    procBoundary14to12throughstreamwiseOut
    {
        type            processorCyclic;
        value           nonuniform List<scalar> 
25
(
-0.0018576901
-0.0014565503
-0.0010507071
-0.00072888457
-0.00050042647
-0.001798815
-0.0013691267
-0.00098617558
-0.00069065398
-0.00047679479
-0.0016785102
-0.0012517455
-0.00090897164
-0.00064703788
-0.00045701366
-0.0013884672
-0.0010942158
-0.00082349881
-0.0006041191
-0.00044189957
-0.00093151758
-0.00090223495
-0.00072864571
-0.0005522974
-0.00042176144
)
;
    }
    procBoundary14to13
    {
        type            processor;
        value           nonuniform List<scalar> 
25
(
0.00046805072
0.00072070996
0.00064554116
0.0005049143
0.00039197682
0.0005652982
0.00074047844
0.00065736531
0.0005129874
0.00038388512
0.00081952944
0.0008496525
0.00071704908
0.00054754076
0.00039730013
0.0012822435
0.001082902
0.00083750619
0.00061476016
0.00043515302
0.0019119526
0.0014108708
0.0010072254
0.00070845436
0.00048768539
)
;
    }
    procBoundary14to17
    {
        type            processor;
        value           nonuniform List<scalar> 
25
(
-0.0006373839
-0.00039965318
-6.2730586e-05
0.00029183357
0.00057570908
-0.00060694732
-0.00037068596
-5.1010699e-05
0.00027833751
0.00054269771
-0.00058890373
-0.00034631971
-3.0161028e-05
0.00028847644
0.00053968585
-0.00058803288
-0.00032896563
-2.8321965e-07
0.00032292277
0.00056818287
-0.00060943861
-0.00032112892
3.373676e-05
0.00037394984
0.00063116991
)
;
    }
    procBoundary14to23
    {
        type            processor;
        value           nonuniform List<scalar> 
25
(
0.0016093667
0.00027084803
-0.0012349813
-0.0022733227
-0.0024179199
0.00075730092
0.00013582496
-0.00056383971
-0.0010640675
-0.0011876562
0.00036447926
6.0342144e-05
-0.00027420316
-0.00051602787
-0.00058570923
0.00018283856
2.6166936e-05
-0.0001425213
-0.00026867582
-0.00030625299
9.1558531e-05
9.9279125e-06
-8.4084812e-05
-0.00016186153
-0.00019280663
)
;
    }
}


// ************************************************************************* //
