/*--------------------------------*- C++ -*----------------------------------*\
| =========                 |                                                 |
| \\      /  F ield         | OpenFOAM: The Open Source CFD Toolbox           |
|  \\    /   O peration     | Version:  3.0.1                                 |
|   \\  /    A nd           | Web:      www.OpenFOAM.org                      |
|    \\/     M anipulation  |                                                 |
\*---------------------------------------------------------------------------*/
FoamFile
{
    version     2.0;
    format      ascii;
    class       volVectorField;
    location    "0.1";
    object      U;
}
// * * * * * * * * * * * * * * * * * * * * * * * * * * * * * * * * * * * * * //

dimensions      [0 1 -1 0 0 0 0];

internalField   nonuniform List<vector> 
125
(
(-4.7738158e-06 -1.3468131e-05 -2.9266553e-06)
(-1.1574214e-05 -1.0909042e-05 -2.071989e-06)
(-1.5441782e-05 -2.8939828e-06 -2.9458273e-08)
(-1.381007e-05 6.2762898e-06 2.250607e-06)
(-8.0754489e-06 1.1403696e-05 3.5488333e-06)
(-3.8777459e-06 -8.0956784e-06 -1.4883632e-06)
(-7.5400456e-06 -5.9519129e-06 -9.8768066e-07)
(-9.4406212e-06 -1.4760977e-06 -3.7733568e-08)
(-8.6027597e-06 3.5096469e-06 9.9948234e-07)
(-5.5457143e-06 6.8270054e-06 1.6980066e-06)
(-2.8521812e-06 -5.0303941e-06 -7.5314211e-07)
(-4.954633e-06 -3.440444e-06 -4.9885701e-07)
(-5.9802218e-06 -7.6911773e-07 -3.2612594e-08)
(-5.5069665e-06 2.1342507e-06 4.7817283e-07)
(-3.7493983e-06 4.262036e-06 8.6624982e-07)
(-2.0181999e-06 -3.1987057e-06 -3.78444e-07)
(-3.2787692e-06 -2.0960501e-06 -2.4807644e-07)
(-3.8659265e-06 -4.1832478e-07 -1.11118e-08)
(-3.5716059e-06 1.3818486e-06 2.5148756e-07)
(-2.5084555e-06 2.7714929e-06 4.6525891e-07)
(-1.4326242e-06 -2.0491559e-06 -2.0678398e-07)
(-2.1742521e-06 -1.3075833e-06 -1.1708501e-07)
(-2.5023231e-06 -2.2635809e-07 9.6914698e-09)
(-2.3171488e-06 9.2032388e-07 1.438348e-07)
(-1.6719411e-06 1.826102e-06 2.549547e-07)
(-4.5699059e-06 -1.13174e-05 -2.2118612e-06)
(-1.0319159e-05 -9.0001352e-06 -1.9759179e-06)
(-1.3444648e-05 -2.8753588e-06 -6.794326e-07)
(-1.2160066e-05 4.1497852e-06 9.815636e-07)
(-7.4193594e-06 8.6315317e-06 1.9630368e-06)
(-3.7061639e-06 -7.0801731e-06 -1.0995555e-06)
(-6.9368386e-06 -5.1668675e-06 -9.5290176e-07)
(-8.5600871e-06 -1.426685e-06 -4.2458302e-07)
(-7.8083317e-06 2.7232011e-06 2.9408837e-07)
(-5.1156721e-06 5.6425963e-06 8.3739288e-07)
(-2.771905e-06 -4.5144439e-06 -5.6008571e-07)
(-4.6656705e-06 -3.0775894e-06 -4.9458059e-07)
(-5.5545799e-06 -7.168874e-07 -2.5662985e-07)
(-5.0907848e-06 1.832909e-06 8.3375687e-08)
(-3.4843018e-06 3.7443092e-06 3.8063331e-07)
(-1.9850566e-06 -2.9307322e-06 -2.837657e-07)
(-3.139282e-06 -1.8959437e-06 -2.590022e-07)
(-3.6495887e-06 -3.6560244e-07 -1.4553549e-07)
(-3.3471351e-06 1.2588402e-06 2.4817147e-08)
(-2.3562849e-06 2.5159752e-06 1.8625868e-07)
(-1.3953041e-06 -1.9198728e-06 -1.3688337e-07)
(-2.1005408e-06 -1.1961698e-06 -1.230908e-07)
(-2.399796e-06 -1.8624105e-07 -7.3276799e-08)
(-2.2092072e-06 8.6485806e-07 6.4072413e-09)
(-1.5904809e-06 1.6937869e-06 9.498444e-08)
(-4.9774082e-06 -9.9143004e-06 -8.4120156e-07)
(-1.0041785e-05 -7.4081277e-06 -1.6110278e-06)
(-1.24843e-05 -2.273016e-06 -1.6677051e-06)
(-1.11676e-05 3.4396885e-06 -1.1357755e-06)
(-6.8699175e-06 7.5520185e-06 -5.2494731e-07)
(-3.8923745e-06 -6.4439028e-06 -3.817669e-07)
(-6.8650731e-06 -4.4705756e-06 -7.8045414e-07)
(-8.1936311e-06 -1.053295e-06 -8.9678979e-07)
(-7.3407838e-06 2.611459e-06 -7.2406e-07)
(-4.7464256e-06 5.244602e-06 -4.1967272e-07)
(-2.8761066e-06 -4.2146043e-06 -1.8441325e-07)
(-4.6511772e-06 -2.7465444e-06 -3.9133533e-07)
(-5.4022655e-06 -4.900702e-07 -4.8175255e-07)
(-4.8697033e-06 1.8649795e-06 -4.2920982e-07)
(-3.2749626e-06 3.6109018e-06 -2.9120838e-07)
(-2.0467388e-06 -2.7755034e-06 -9.4366295e-08)
(-3.140539e-06 -1.7245603e-06 -2.0585515e-07)
(-3.5821072e-06 -2.3497174e-07 -2.6241029e-07)
(-3.2398118e-06 1.3048802e-06 -2.4703326e-07)
(-2.2446954e-06 2.485844e-06 -1.8031639e-07)
(-1.425493e-06 -1.8416916e-06 -4.1605348e-08)
(-2.1106456e-06 -1.1050237e-06 -1.0786666e-07)
(-2.372825e-06 -1.134001e-07 -1.45772e-07)
(-2.1488876e-06 8.9771499e-07 -1.402278e-07)
(-1.5290918e-06 1.6898058e-06 -9.8275102e-08)
(-6.2361571e-06 -9.8051009e-06 1.0388276e-06)
(-1.1145662e-05 -6.3004872e-06 -9.0780154e-07)
(-1.2969396e-05 -7.0222369e-07 -2.5989708e-06)
(-1.1017308e-05 4.8884517e-06 -3.4137879e-06)
(-6.2955451e-06 8.6190696e-06 -3.2040922e-06)
(-4.5329932e-06 -6.4233848e-06 5.3726878e-07)
(-7.4518615e-06 -3.9471751e-06 -4.3517027e-07)
(-8.503693e-06 -2.4073248e-07 -1.2877069e-06)
(-7.3312146e-06 3.4297667e-06 -1.7484898e-06)
(-4.4676319e-06 5.8763353e-06 -1.7279866e-06)
(-3.2040573e-06 -4.2270433e-06 2.7770276e-07)
(-4.9630098e-06 -2.5029904e-06 -2.1050897e-07)
(-5.5924544e-06 -8.2507893e-08 -6.5523235e-07)
(-4.9002406e-06 2.3099358e-06 -9.2105864e-07)
(-3.1429272e-06 3.9836655e-06 -9.5181184e-07)
(-2.2237876e-06 -2.7879243e-06 1.3728174e-07)
(-3.307326e-06 -1.612475e-06 -1.1653095e-07)
(-3.6907668e-06 -2.9621883e-08 -3.4903486e-07)
(-3.2650412e-06 1.5478222e-06 -4.9514719e-07)
(-2.18138e-06 2.7089085e-06 -5.2968094e-07)
(-1.525662e-06 -1.8434796e-06 7.1314776e-08)
(-2.2047074e-06 -1.0460481e-06 -6.6712944e-08)
(-2.4321572e-06 -6.2121608e-09 -1.8882012e-07)
(-2.1617103e-06 1.0273804e-06 -2.6762566e-07)
(-1.5048987e-06 1.8076775e-06 -2.9900379e-07)
(-8.2897253e-06 -1.1396883e-05 3.053226e-06)
(-1.3679583e-05 -5.8678298e-06 1.1349279e-07)
(-1.4990286e-05 1.7288759e-06 -3.0365156e-06)
(-1.1772722e-05 8.4133815e-06 -5.0879388e-06)
(-5.7264303e-06 1.1803445e-05 -5.2709551e-06)
(-5.5664339e-06 -7.2050276e-06 1.4630603e-06)
(-8.6900488e-06 -3.773283e-06 6.2698289e-08)
(-9.5069506e-06 8.9044349e-07 -1.4267312e-06)
(-7.7810635e-06 5.1041882e-06 -2.4405863e-06)
(-4.2889493e-06 7.4968823e-06 -2.6564655e-06)
(-3.7270847e-06 -4.6145913e-06 7.1528685e-07)
(-5.5841123e-06 -2.4279051e-06 2.4216586e-08)
(-6.1128152e-06 4.4860186e-07 -7.0425609e-07)
(-5.1662828e-06 3.1183221e-06 -1.2166838e-06)
(-3.080261e-06 4.8092075e-06 -1.3597249e-06)
(-2.5017174e-06 -2.9818913e-06 3.5733265e-07)
(-3.6268556e-06 -1.5807643e-06 6.7289115e-10)
(-3.9607234e-06 2.314405e-07 -3.6893613e-07)
(-3.4204579e-06 1.9583131e-06 -6.3786917e-07)
(-2.1607788e-06 3.1386521e-06 -7.290311e-07)
(-1.6765142e-06 -1.9333245e-06 1.8013032e-07)
(-2.3707805e-06 -1.0237288e-06 -7.0975386e-09)
(-2.5737378e-06 1.2666347e-07 -2.0551391e-07)
(-2.2590712e-06 1.2320506e-06 -3.6342699e-07)
(-1.5163924e-06 2.0348142e-06 -4.3878017e-07)
)
;

boundaryField
{
    movingWall
    {
        type            fixedValue;
        value           nonuniform 0();
    }
    CPLReceiveMD
    {
        type            fixedValue;
        value           nonuniform 0();
    }
    streamwiseIn
    {
        type            cyclic;
    }
    streamwiseOut
    {
        type            cyclic;
    }
    front
    {
        type            cyclic;
    }
    back
    {
        type            cyclic;
    }
    procBoundary14to5
    {
        type            processor;
        value           nonuniform List<vector> 
25
(
(-5.3638161e-06 -1.571215e-05 -3.016844e-06)
(-1.3216356e-05 -1.2730261e-05 -1.8244756e-06)
(-1.7767244e-05 -2.8374716e-06 2.8410565e-07)
(-1.5738358e-05 8.6039972e-06 2.5497982e-06)
(-8.8734157e-06 1.4700819e-05 3.9749472e-06)
(-4.3087744e-06 -9.2536863e-06 -1.5805569e-06)
(-8.3874682e-06 -6.7399995e-06 -8.7221842e-07)
(-1.054725e-05 -1.4235307e-06 2.1323611e-07)
(-9.5440719e-06 4.4956352e-06 1.3131139e-06)
(-6.0242237e-06 8.3251798e-06 2.0424514e-06)
(-3.1407484e-06 -5.6243631e-06 -8.3286264e-07)
(-5.3862e-06 -3.8171936e-06 -4.2186117e-07)
(-6.5316098e-06 -7.4350916e-07 1.4483139e-07)
(-5.9896472e-06 2.5809038e-06 7.030343e-07)
(-4.0288586e-06 4.9770569e-06 1.0951482e-06)
(-2.2046406e-06 -3.4770903e-06 -4.429531e-07)
(-3.5066142e-06 -2.2777157e-06 -2.0258516e-07)
(-4.1491527e-06 -4.079065e-07 1.0213767e-07)
(-3.8235058e-06 1.5931782e-06 3.9970888e-07)
(-2.67254e-06 3.1272704e-06 6.2010657e-07)
(-1.5220242e-06 -2.1926808e-06 -2.475007e-07)
(-2.3170162e-06 -1.3910537e-06 -1.0314673e-07)
(-2.6607159e-06 -2.136244e-07 7.8531498e-08)
(-2.4544704e-06 1.0265438e-06 2.5267349e-07)
(-1.7690171e-06 1.99984e-06 3.7719062e-07)
)
;
    }
    procBoundary14to11
    {
        type            processor;
        value           nonuniform List<vector> 
25
(
(-4.5583672e-06 -2.3210298e-05 -5.8831128e-06)
(-1.8114194e-05 -2.1364352e-05 -4.7178061e-06)
(-2.6625953e-05 -5.5233229e-06 1.5366909e-10)
(-2.2900439e-05 1.2951285e-05 5.4536944e-06)
(-1.1195315e-05 2.009965e-05 7.7672934e-06)
(-4.7227278e-06 -1.8432086e-05 -4.6533866e-06)
(-1.537888e-05 -1.6338533e-05 -4.4538158e-06)
(-2.1710007e-05 -5.8306018e-06 -1.0455498e-06)
(-1.9315222e-05 6.6962653e-06 3.1306897e-06)
(-1.0505755e-05 1.3523022e-05 4.6890709e-06)
(-5.7428779e-06 -1.5258858e-05 -1.8940663e-06)
(-1.4506357e-05 -1.2490461e-05 -3.4801021e-06)
(-1.9041447e-05 -5.0032374e-06 -3.069925e-06)
(-1.7165818e-05 3.728424e-06 -1.4627265e-06)
(-9.9825517e-06 1.0621353e-05 -4.0721055e-07)
(-8.1742597e-06 -1.4808427e-05 2.0198515e-06)
(-1.6554739e-05 -1.0026012e-05 -1.9754682e-06)
(-1.9692632e-05 -2.0302844e-06 -5.2895989e-06)
(-1.6652508e-05 6.1284649e-06 -6.7221828e-06)
(-8.8908133e-06 1.2221331e-05 -5.979413e-06)
(-1.2371823e-05 -1.8021246e-05 6.3940284e-06)
(-2.1815808e-05 -8.9983032e-06 1.5366328e-07)
(-2.3788162e-05 3.1170894e-06 -6.619523e-06)
(-1.7855632e-05 1.3553854e-05 -1.0924712e-05)
(-7.2678186e-06 1.8340888e-05 -1.0604443e-05)
)
;
    }
    procBoundary14to12throughstreamwiseOut
    {
        type            processorCyclic;
        value           nonuniform List<vector> 
25
(
(-1.7489349e-06 1.192589e-05 3.7046632e-06)
(-1.7740451e-06 7.8356975e-06 1.908034e-06)
(-1.4154022e-06 5.1715095e-06 1.0227296e-06)
(-1.0383445e-06 3.4593059e-06 5.6774265e-07)
(-7.5297351e-07 2.2995088e-06 3.2237096e-07)
(-1.8575438e-06 9.5398679e-06 2.1870951e-06)
(-1.7102765e-06 6.6582587e-06 1.0933771e-06)
(-1.3478438e-06 4.5922962e-06 5.5781147e-07)
(-9.9235525e-07 3.1526611e-06 2.8857721e-07)
(-7.1028988e-07 2.1449985e-06 1.4925648e-07)
(-1.5804689e-06 8.6758145e-06 -1.1961192e-08)
(-1.4695952e-06 6.2064138e-06 -7.6019759e-08)
(-1.1877056e-06 4.3667097e-06 -8.7835234e-08)
(-8.9768988e-07 3.0507509e-06 -7.2128299e-08)
(-6.5946747e-07 2.1101562e-06 -5.4645547e-08)
(-7.604057e-07 9.3116331e-06 -2.2703007e-06)
(-1.0242165e-06 6.5823847e-06 -1.2910135e-06)
(-9.5190437e-07 4.5961876e-06 -7.2635705e-07)
(-7.7804605e-07 3.1858508e-06 -4.112306e-07)
(-6.029097e-07 2.191291e-06 -2.5492619e-07)
(5.3622472e-07 1.1392251e-05 -4.06337e-06)
(-4.386355e-07 7.7503575e-06 -2.2408907e-06)
(-6.796527e-07 5.2464925e-06 -1.2576681e-06)
(-6.4300711e-07 3.5221817e-06 -7.2010061e-07)
(-5.3753232e-07 2.3534372e-06 -4.212622e-07)
)
;
    }
    procBoundary14to13
    {
        type            processor;
        value           nonuniform List<vector> 
25
(
(1.3550747e-06 -1.1589663e-05 -2.8658993e-06)
(-6.3148818e-08 -7.8735475e-06 -1.5902911e-06)
(-4.8492011e-07 -5.29999e-06 -8.6770046e-07)
(-5.3336581e-07 -3.5156072e-06 -4.6766052e-07)
(-4.8068755e-07 -2.3325302e-06 -2.4380509e-07)
(1.0375789e-06 -1.0016699e-05 -1.7723255e-06)
(-1.7368317e-07 -6.9648684e-06 -9.3827318e-07)
(-5.311693e-07 -4.7986967e-06 -4.7065525e-07)
(-5.5526714e-07 -3.2725445e-06 -2.3046337e-07)
(-4.7943596e-07 -2.2087823e-06 -1.3022202e-07)
(5.4964064e-07 -9.2586312e-06 5.5223462e-08)
(-4.1426792e-07 -6.5718772e-06 4.6375161e-08)
(-6.6453674e-07 -4.5921802e-06 4.0816947e-08)
(-6.3128807e-07 -3.1751739e-06 3.2875858e-08)
(-5.1576747e-07 -2.1592533e-06 2.2491228e-08)
(-1.7200734e-07 -9.9417537e-06 2.4045156e-06)
(-8.2066061e-07 -6.9792749e-06 1.2388892e-06)
(-8.8869264e-07 -4.812196e-06 6.4046919e-07)
(-7.5872975e-07 -3.2908702e-06 3.3844769e-07)
(-5.8821731e-07 -2.2200791e-06 1.843083e-07)
(-1.0797637e-06 -1.2673219e-05 4.7071059e-06)
(-1.334618e-06 -8.3359236e-06 2.3295921e-06)
(-1.1735644e-06 -5.4926216e-06 1.1725121e-06)
(-9.1840172e-07 -3.6313348e-06 5.9991247e-07)
(-6.7866192e-07 -2.3909952e-06 3.2202735e-07)
)
;
    }
    procBoundary14to17
    {
        type            processor;
        value           nonuniform List<vector> 
25
(
(-9.9325308e-07 -1.3087918e-06 -1.0563594e-07)
(-1.4559714e-06 -8.0323275e-07 -5.3192565e-08)
(-1.6380193e-06 -1.1212226e-07 1.6271551e-08)
(-1.5191458e-06 6.0317494e-07 8.980184e-08)
(-1.1292705e-06 1.1748191e-06 1.5920583e-07)
(-9.7244412e-07 -1.2461073e-06 -7.6301476e-08)
(-1.4056503e-06 -7.5155451e-07 -5.644262e-08)
(-1.5885608e-06 -9.137314e-08 -3.2577496e-08)
(-1.4671071e-06 5.8482217e-07 2.2082572e-09)
(-1.0761445e-06 1.1273142e-06 4.9962451e-08)
(-9.9250922e-07 -1.211786e-06 -1.7973112e-08)
(-1.4122474e-06 -7.0527302e-07 -5.5733429e-08)
(-1.5793685e-06 -4.8511048e-08 -8.23814e-08)
(-1.4366059e-06 6.105933e-07 -8.451091e-08)
(-1.0322542e-06 1.1285509e-06 -6.6425794e-08)
(-1.0497565e-06 -1.210359e-06 4.5648919e-08)
(-1.4700586e-06 -6.6971469e-07 -3.523598e-08)
(-1.6173383e-06 1.2529637e-08 -1.089713e-07)
(-1.4511515e-06 6.7894418e-07 -1.6081155e-07)
(-1.0174694e-06 1.1838862e-06 -1.8467255e-07)
(-1.134451e-06 -1.2482184e-06 1.0615732e-07)
(-1.5668676e-06 -6.5308719e-07 -4.1705658e-09)
(-1.704944e-06 7.9428926e-08 -1.1194272e-07)
(-1.5123071e-06 7.7667259e-07 -2.0219795e-07)
(-1.0393923e-06 1.294173e-06 -2.6105366e-07)
)
;
    }
    procBoundary14to23
    {
        type            processor;
        value           nonuniform List<vector> 
25
(
(-1.082977e-05 -1.4736069e-05 4.4627299e-06)
(-1.7235404e-05 -6.3914521e-06 1.3113128e-06)
(-1.8170828e-05 4.4905681e-06 -2.6088127e-06)
(-1.3251748e-05 1.3372577e-05 -5.4277734e-06)
(-5.2709763e-06 1.6567047e-05 -5.9312576e-06)
(-6.799887e-06 -8.7613239e-06 2.0897203e-06)
(-1.0341653e-05 -4.0364513e-06 5.9204347e-07)
(-1.1006978e-05 2.0915271e-06 -1.1889108e-06)
(-8.560949e-06 7.3010217e-06 -2.5112682e-06)
(-4.2679363e-06 9.7875655e-06 -2.912908e-06)
(-4.3523528e-06 -5.332771e-06 1.0078969e-06)
(-6.3825527e-06 -2.5650158e-06 2.6074573e-07)
(-6.8333548e-06 9.7528715e-07 -5.7663546e-07)
(-5.5557095e-06 4.1126529e-06 -1.2183433e-06)
(-3.1839115e-06 5.9111e-06 -1.4831356e-06)
(-2.8230271e-06 -3.3230808e-06 5.0246736e-07)
(-4.0335948e-06 -1.6437891e-06 1.2366641e-07)
(-4.3293088e-06 4.6912029e-07 -2.9223458e-07)
(-3.6251362e-06 2.401079e-06 -6.3251313e-07)
(-2.2636114e-06 3.6298532e-06 -8.0288088e-07)
(-1.8547869e-06 -2.0946549e-06 2.5477604e-07)
(-2.5903516e-06 -1.0508916e-06 5.767244e-08)
(-2.7884866e-06 2.5078125e-07 -1.746633e-07)
(-2.3949765e-06 1.4630516e-06 -3.7485098e-07)
(-1.5627339e-06 2.275655e-06 -4.8354331e-07)
)
;
    }
}


// ************************************************************************* //
