/*--------------------------------*- C++ -*----------------------------------*\
| =========                 |                                                 |
| \\      /  F ield         | OpenFOAM: The Open Source CFD Toolbox           |
|  \\    /   O peration     | Version:  3.0.1                                 |
|   \\  /    A nd           | Web:      www.OpenFOAM.org                      |
|    \\/     M anipulation  |                                                 |
\*---------------------------------------------------------------------------*/
FoamFile
{
    version     2.0;
    format      ascii;
    class       volScalarField;
    location    "0.1";
    object      p;
}
// * * * * * * * * * * * * * * * * * * * * * * * * * * * * * * * * * * * * * //

dimensions      [0 2 -2 0 0 0 0];

internalField   nonuniform List<scalar> 
125
(
-0.053419469
-0.056017304
-0.058604003
-0.060656604
-0.061497496
-0.053342739
-0.055117666
-0.056753157
-0.057913261
-0.058221303
-0.053190629
-0.054393975
-0.055432373
-0.056097663
-0.056185977
-0.053047005
-0.053858704
-0.054522599
-0.054911864
-0.054917215
-0.05293467
-0.053479889
-0.053910838
-0.054144829
-0.054120358
-0.053451709
-0.055854901
-0.05821388
-0.06011512
-0.060992085
-0.053313188
-0.054994645
-0.056523231
-0.057623095
-0.0579639
-0.053153032
-0.054308052
-0.055297787
-0.05594217
-0.056055148
-0.053016915
-0.053801948
-0.054444666
-0.054827892
-0.05484905
-0.052916085
-0.0534463
-0.053865176
-0.05409666
-0.054084556
-0.053484557
-0.055684035
-0.0577937
-0.059520365
-0.06040698
-0.053278719
-0.054848565
-0.056257185
-0.057283671
-0.057642482
-0.053112147
-0.054205274
-0.055136216
-0.05574957
-0.055879437
-0.052986858
-0.053736634
-0.054348631
-0.054718013
-0.054752201
-0.052899878
-0.053407166
-0.053808087
-0.054032916
-0.054029103
-0.053458431
-0.055470792
-0.057332637
-0.058867051
-0.05973307
-0.053223212
-0.054678324
-0.0559646
-0.05690807
-0.057270916
-0.053067936
-0.054091535
-0.054958631
-0.055533199
-0.055672372
-0.052959819
-0.053667255
-0.054242895
-0.054592597
-0.054635681
-0.05288624
-0.053366322
-0.053745372
-0.053960339
-0.053962571
-0.053313596
-0.05516723
-0.0568339
-0.058207542
-0.059042524
-0.053137151
-0.054481599
-0.055661394
-0.056527762
-0.05688543
-0.053022175
-0.053976176
-0.054780619
-0.055313804
-0.055456269
-0.052938856
-0.053602347
-0.05413817
-0.054465558
-0.054515617
-0.052876676
-0.053325984
-0.053683136
-0.05388826
-0.053896466
)
;

boundaryField
{
    movingWall
    {
        type            zeroGradient;
    }
    CPLReceiveMD
    {
        type            zeroGradient;
    }
    streamwiseIn
    {
        type            cyclic;
    }
    streamwiseOut
    {
        type            cyclic;
    }
    front
    {
        type            cyclic;
    }
    back
    {
        type            cyclic;
    }
    procBoundary4to1
    {
        type            processor;
        value           nonuniform List<scalar> 
25
(
-0.053190586
-0.056959521
-0.061062376
-0.064695979
-0.066748424
-0.053421751
-0.056776243
-0.060403919
-0.063701031
-0.065761911
-0.053709055
-0.056659774
-0.059765434
-0.062663796
-0.064716033
-0.053860301
-0.056488704
-0.05906817
-0.061496962
-0.063475132
-0.053655749
-0.056112124
-0.058283056
-0.060349459
-0.062256217
)
;
    }
    procBoundary4to3
    {
        type            processor;
        value           nonuniform List<scalar> 
25
(
-0.05108828
-0.051632892
-0.051979232
-0.052206324
-0.052362347
-0.051198013
-0.051655142
-0.051977782
-0.052200826
-0.052356859
-0.051316916
-0.051689933
-0.051987403
-0.052206194
-0.052363379
-0.051390511
-0.051720652
-0.052004591
-0.05222098
-0.052378475
-0.051376203
-0.051737
-0.05202506
-0.052242033
-0.05239837
)
;
    }
    procBoundary4to5
    {
        type            processor;
        value           nonuniform List<scalar> 
25
(
-0.060442079
-0.057375744
-0.055572352
-0.054488572
-0.053827554
-0.060199002
-0.057250391
-0.055509247
-0.054457681
-0.053813939
-0.05986086
-0.057056429
-0.055402283
-0.054401174
-0.053784154
-0.059368462
-0.056789124
-0.055255985
-0.054321089
-0.053741521
-0.058783255
-0.056473595
-0.05508107
-0.054222918
-0.05368936
)
;
    }
    procBoundary4to7
    {
        type            processor;
        value           nonuniform List<scalar> 
25
(
-0.052859323
-0.053227381
-0.053511842
-0.053657336
-0.053627959
-0.052846194
-0.05320544
-0.053482106
-0.053626222
-0.05360616
-0.052838863
-0.053182532
-0.053447609
-0.053588013
-0.053574487
-0.052834666
-0.053159983
-0.053411355
-0.053546477
-0.053537225
-0.052832902
-0.05313854
-0.053377788
-0.053508
-0.053498968
)
;
    }
    procBoundary4to13
    {
        type            processor;
        value           nonuniform List<scalar> 
25
(
-0.053085431
-0.054781016
-0.056333059
-0.057621469
-0.058396955
-0.053033762
-0.0542764
-0.055374627
-0.056183583
-0.056518293
-0.052974618
-0.053867612
-0.054620298
-0.055117806
-0.055246365
-0.052919932
-0.05354638
-0.054051504
-0.054357906
-0.054396869
-0.05287294
-0.053300024
-0.053639893
-0.053835209
-0.053838838
)
;
    }
    procBoundary4to22throughfront
    {
        type            processorCyclic;
        value           nonuniform List<scalar> 
25
(
-0.053408659
-0.053381316
-0.053227759
-0.053073915
-0.052958909
-0.05616205
-0.055219353
-0.054458257
-0.053897973
-0.053507077
-0.058938471
-0.056925751
-0.055522978
-0.054570906
-0.053939984
-0.061111217
-0.058123697
-0.056195817
-0.054958589
-0.054171453
-0.061913549
-0.058398555
-0.056262028
-0.054949187
-0.054137626
)
;
    }
}


// ************************************************************************* //
