/*--------------------------------*- C++ -*----------------------------------*\
| =========                 |                                                 |
| \\      /  F ield         | OpenFOAM: The Open Source CFD Toolbox           |
|  \\    /   O peration     | Version:  3.0.1                                 |
|   \\  /    A nd           | Web:      www.OpenFOAM.org                      |
|    \\/     M anipulation  |                                                 |
\*---------------------------------------------------------------------------*/
FoamFile
{
    version     2.0;
    format      ascii;
    class       surfaceScalarField;
    location    "0.1";
    object      phi;
}
// * * * * * * * * * * * * * * * * * * * * * * * * * * * * * * * * * * * * * //

dimensions      [0 3 -1 0 0 0 0];

internalField   nonuniform List<scalar> 
300
(
0.0051922842
-0.00015306065
6.4729149e-05
0.0051710711
-0.0017989295
-0.00032443022
0.0041039427
-0.0037016572
-0.00077983212
0.0016815573
-0.0054870011
-0.001082567
-0.006552973
-0.0010104584
0.0035466821
-0.00030381245
-5.8912825e-05
0.0032687085
-0.0014465948
-0.00024572615
0.0023190785
-0.0026406995
-0.00045944734
0.00061612075
-0.003630463
-0.00057989794
-0.0040700517
-0.00051437758
0.0024040521
-0.00028692777
-7.5076705e-05
0.0020748721
-0.0010696853
-0.00017162493
0.0013296412
-0.0018184195
-0.00026887566
0.0001767728
-0.002370441
-0.0003106533
-0.0025364537
-0.00026132447
0.0016213628
-0.00022441436
-6.0103898e-05
0.0013262962
-0.0007568673
-0.00011336537
0.0007778102
-0.0012224543
-0.00015567149
1.0864915e-05
-0.0015329061
-0.00016772567
-0.0015926021
-0.00013611239
0.0010889436
-3.7124669e-05
0.00086079025
-6.7087233e-05
0.00046745333
-9.1200687e-05
-4.8789498e-05
-9.6198157e-05
-7.147897e-05
0.0048032644
-0.00027677954
6.5771826e-05
0.0047157593
-0.0017202296
-0.00034163887
0.0038012912
-0.0033812089
-0.00084026619
0.0017536781
-0.0049842117
-0.0011893947
-0.0060567548
-0.0011699788
0.0033599626
-0.00032005106
-6.8867827e-05
0.0030550627
-0.001372537
-0.00029198944
0.0021986742
-0.0024501365
-0.00053185995
0.00068163254
-0.0033611896
-0.00067858286
-0.0038169668
-0.00064250178
0.0023075602
-0.00027198746
-8.1704032e-05
0.0019776679
-0.0010114642
-0.00020539037
0.0012878888
-0.0017052475
-0.00032290867
0.00022609261
-0.0022275281
-0.00038492959
-0.0024112475
-0.0003511251
0.001568131
-0.00020144924
-6.0061189e-05
0.0012840155
-0.00071061241
-0.00013049713
0.00076576974
-0.001158009
-0.00019188217
4.2473757e-05
-0.0014614001
-0.00021954073
-0.0015279864
-0.00019347656
0.0010589944
-3.2383017e-05
0.00083668876
-7.8175781e-05
0.0004624627
-0.00011404245
-2.4071378e-05
-0.00012733223
-0.00011075428
0.0043959506
-0.00041152244
-5.249584e-05
0.004217231
-0.0016706472
-0.00042689676
0.0034522574
-0.0030727976
-0.00092259859
0.0017731001
-0.0044733323
-0.0013069945
-0.0055291898
-0.0013479783
0.0031368783
-0.00033293856
-0.00011113149
0.0028152433
-0.0012859651
-0.00034064341
0.0020519994
-0.0022411744
-0.00058536074
0.00071771259
-0.0030674966
-0.00075134039
-0.0035255432
-0.00074313274
0.0021838937
-0.00025036248
-8.8457006e-05
0.0018601753
-0.00093658058
-0.00022749039
0.0012258897
-0.0015742151
-0.00035517564
0.00025989467
-0.0020621184
-0.0004327164
-0.0022535764
-0.00041404412
0.0014977052
-0.00017377688
-5.4082487e-05
0.0012226427
-0.00065829441
-0.00013871296
0.00073812076
-0.0010801668
-0.00021139637
6.8536429e-05
-0.0013691835
-0.00025073479
-0.0014452563
-0.00023292785
0.0010132063
-2.7270345e-05
0.0008008275
-8.1630975e-05
0.00044917696
-0.00012533592
-7.4939978e-06
-0.00014504563
-0.00013295695
0.0040215659
-0.0004702797
-0.00029001326
0.0037215925
-0.0015844926
-0.0006077185
0.0030679235
-0.0027355775
-0.00099818543
0.0017321373
-0.0039175975
-0.0013196513
-0.004924236
-0.001381559
0.0029073723
-0.00031029468
-0.00017235324
0.0025705555
-0.0011728189
-0.00039379842
0.0018860488
-0.002010962
-0.0006068407
0.0007259193
-0.002748815
-0.00076099792
-0.0031963909
-0.00077123075
0.0020448618
-0.00021598894
-9.1647104e-05
0.0017325029
-0.00084778578
-0.00023087182
0.0011483626
-0.0014303979
-0.00035619321
0.00027856674
-0.0018800864
-0.00043893146
-0.0020724144
-0.00043228737
0.0014130752
-0.00014696159
-4.1988191e-05
0.0011499647
-0.00060119886
-0.00012985763
0.00069878832
-0.00099408214
-0.00020947193
8.6342756e-05
-0.0012634642
-0.00025407817
-0.0013452586
-0.00024011763
0.00095884604
-1.9150666e-05
0.00075712485
-8.0651131e-05
0.00042946977
-0.00012442401
4.5940176e-06
-0.00014410283
-0.00013216237
0.0037038242
-0.0003526123
0.0033311505
-0.0013706237
0.0027464859
-0.0023442291
0.0016702842
-0.003358874
-0.0043138351
0.0026858839
-0.00022955685
0.0023575128
-0.0010098491
0.0017319118
-0.0017602454
0.00071571767
-0.002426669
-0.002857346
0.0019056129
-0.00016630271
0.0016071752
-0.00074671652
0.0010656296
-0.0012835986
0.00028522149
-0.0016951524
-0.0018801751
0.0013251939
-0.00012410977
0.0010703453
-0.00055196088
0.00065418234
-0.00090898803
0.00010030528
-0.0011534383
-0.0012372586
0.00089734054
0.00071334913
0.00040979002
1.6533413e-05
)
;

boundaryField
{
    movingWall
    {
        type            calculated;
        value           nonuniform 0();
    }
    CPLReceiveMD
    {
        type            calculated;
        value           nonuniform 0();
    }
    streamwiseIn
    {
        type            cyclic;
        value           nonuniform 0();
    }
    streamwiseOut
    {
        type            cyclic;
        value           nonuniform 0();
    }
    front
    {
        type            cyclic;
        value           nonuniform 0();
    }
    back
    {
        type            cyclic;
        value           nonuniform 0();
    }
    procBoundary4to1
    {
        type            processor;
        value           nonuniform List<scalar> 
25
(
-0.00045796396
0.001884952
0.0049179992
0.0080805236
0.0105042
-6.020147e-05
0.0018429874
0.004380947
0.007173081
0.0095413576
0.00044894392
0.0019517129
0.0039440258
0.0062876491
0.0086192667
0.00080391715
0.0020361084
0.0034714548
0.0052602034
0.0074847584
0.00068448301
0.0018902591
0.0028986841
0.0042839364
0.0064279093
)
;
    }
    procBoundary4to3
    {
        type            processor;
        value           nonuniform List<scalar> 
25
(
-0.0046584038
-0.0034161133
-0.0024198743
-0.0016791361
-0.0011430322
-0.0045038042
-0.0033127848
-0.002347766
-0.001630069
-0.0011168966
-0.0043318334
-0.0031744232
-0.0022468964
-0.001559329
-0.0010715173
-0.0041322207
-0.0030019398
-0.0021241381
-0.0014757405
-0.001014111
-0.0038708224
-0.0027969545
-0.0019916263
-0.0013917164
-0.00095523489
)
;
    }
    procBoundary4to5
    {
        type            processor;
        value           nonuniform List<scalar> 
25
(
-0.0021096952
-0.0016897558
-0.0012259524
-0.00085620887
-0.00058478971
-0.0015851682
-0.0014257518
-0.0010905739
-0.0007817094
-0.00054045089
-0.0010912434
-0.0011708434
-0.00095310209
-0.00070106667
-0.0004891597
-0.0007280373
-0.00096218401
-0.00083151768
-0.00062819996
-0.00044139371
-0.00051698604
-0.00082204947
-0.00074902494
-0.00058436417
-0.00041350195
)
;
    }
    procBoundary4to7
    {
        type            processor;
        value           nonuniform List<scalar> 
25
(
-0.00015051113
-0.00050442096
-0.00079712505
-0.00097401342
-0.00098387342
-0.00013961496
-0.00048116674
-0.00076532759
-0.00093996631
-0.00095593181
-0.00012187906
-0.00044874625
-0.00072018565
-0.00088894464
-0.00090842738
-0.00010299877
-0.00041215752
-0.00066726346
-0.00082686373
-0.00084989836
-8.7382194e-05
-0.00037434399
-0.00060989479
-0.00075962815
-0.00079416452
)
;
    }
    procBoundary4to13
    {
        type            processor;
        value           nonuniform List<scalar> 
25
(
-0.00045654699
-0.00077271144
-0.0010020638
-0.001172599
-0.0012915046
-0.00020699036
-0.00041063279
-0.00057379337
-0.00068860972
-0.00073448218
-9.5249979e-05
-0.00021726419
-0.00032076969
-0.00039209329
-0.00041985321
-3.7926764e-05
-0.00011199713
-0.00017337493
-0.00021532007
-0.00023746323
-7.5203351e-06
-5.1941734e-05
-8.6489183e-05
-0.00010609286
-0.00011522334
)
;
    }
    procBoundary4to22throughfront
    {
        type            processorCyclic;
        value           nonuniform List<scalar> 
25
(
-2.1701224e-05
7.7015439e-05
7.4173265e-05
5.376422e-05
4.8420332e-05
0.00028935392
0.00020325511
0.00012848957
7.8485654e-05
5.4326317e-05
0.00066873913
0.00034506654
0.00018113702
9.6565511e-05
5.8249848e-05
0.00090900199
0.00042071636
0.00019621881
9.3398379e-05
5.3206744e-05
0.00083195645
0.00035433346
0.00015198086
6.3876801e-05
3.4490624e-05
)
;
    }
}


// ************************************************************************* //
