/*--------------------------------*- C++ -*----------------------------------*\
| =========                 |                                                 |
| \\      /  F ield         | OpenFOAM: The Open Source CFD Toolbox           |
|  \\    /   O peration     | Version:  3.0.1                                 |
|   \\  /    A nd           | Web:      www.OpenFOAM.org                      |
|    \\/     M anipulation  |                                                 |
\*---------------------------------------------------------------------------*/
FoamFile
{
    version     2.0;
    format      ascii;
    class       volVectorField;
    location    "0.1";
    object      U;
}
// * * * * * * * * * * * * * * * * * * * * * * * * * * * * * * * * * * * * * //

dimensions      [0 1 -1 0 0 0 0];

internalField   nonuniform List<vector> 
125
(
(1.2313153e-05 3.8060075e-07 1.0822608e-07)
(1.2954857e-05 -4.6050551e-06 -7.6696561e-07)
(1.1595048e-05 -1.0774367e-05 -1.8104978e-06)
(7.2331771e-06 -1.6958603e-05 -2.4893136e-06)
(-5.3432767e-07 -2.1319646e-05 -2.3029497e-06)
(8.70341e-06 -5.7118414e-07 -1.6975859e-07)
(8.5194794e-06 -4.056673e-06 -5.6100964e-07)
(6.9854434e-06 -7.9272872e-06 -1.0054256e-06)
(3.6696729e-06 -1.1395739e-05 -1.2505895e-06)
(-1.34179e-06 -1.3277142e-05 -1.0857515e-06)
(6.0298557e-06 -7.3852649e-07 -1.8649822e-07)
(5.5987538e-06 -3.1451634e-06 -3.7503678e-07)
(4.2559819e-06 -5.5733976e-06 -5.6239304e-07)
(1.8833228e-06 -7.5003254e-06 -6.3347199e-07)
(-1.311404e-06 -8.257098e-06 -5.1652965e-07)
(4.1255951e-06 -6.3919106e-07 -1.4231045e-07)
(3.6846083e-06 -2.2830571e-06 -2.3976814e-07)
(2.6302813e-06 -3.8007686e-06 -3.1523789e-07)
(9.8597249e-07 -4.8786773e-06 -3.2634301e-07)
(-1.0566639e-06 -5.1607134e-06 -2.4992871e-07)
(2.7899551e-06 -4.6865228e-07 -1.0692291e-07)
(2.4371763e-06 -1.5765334e-06 -1.5175052e-07)
(1.6603617e-06 -2.524301e-06 -1.8679032e-07)
(5.2337805e-07 -3.1333859e-06 -1.8672938e-07)
(-7.9197061e-07 -3.2202903e-06 -1.3243496e-07)
(1.1633605e-05 -2.711839e-07 1.6344581e-07)
(1.1899171e-05 -4.454305e-06 -8.3223575e-07)
(1.0647357e-05 -9.7026496e-06 -2.0247634e-06)
(6.9448826e-06 -1.5196031e-05 -2.8396413e-06)
(2.1149474e-07 -1.9496118e-05 -2.7252122e-06)
(8.3408269e-06 -7.4615841e-07 -1.59613e-07)
(8.0189438e-06 -3.8658237e-06 -6.719286e-07)
(6.5677756e-06 -7.2887264e-06 -1.2388602e-06)
(3.6009881e-06 -1.0430934e-05 -1.5728351e-06)
(-9.2985506e-07 -1.2340848e-05 -1.4458521e-06)
(5.8190999e-06 -7.4007833e-07 -1.9592369e-07)
(5.3566029e-06 -2.9798245e-06 -4.7114456e-07)
(4.0822463e-06 -5.1938164e-06 -7.3955806e-07)
(1.8927606e-06 -6.9852337e-06 -8.6929554e-07)
(-1.0805066e-06 -7.7843769e-06 -7.6539089e-07)
(3.9977201e-06 -5.9178306e-07 -1.5018461e-07)
(3.5652057e-06 -2.1524603e-06 -3.0476575e-07)
(2.5623663e-06 -3.578778e-06 -4.343494e-07)
(1.0104276e-06 -4.6107144e-06 -4.8397767e-07)
(-9.2401602e-07 -4.9235021e-06 -4.1188579e-07)
(2.7198485e-06 -4.2631563e-07 -8.6876458e-08)
(2.369608e-06 -1.4896441e-06 -1.8155203e-07)
(1.6239922e-06 -2.4040066e-06 -2.5651179e-07)
(5.4803647e-07 -3.0014646e-06 -2.7936218e-07)
(-7.0564371e-07 -3.1046146e-06 -2.2774154e-07)
(1.0909432e-05 -1.0756234e-06 1.6680771e-08)
(1.0766648e-05 -4.52807e-06 -9.6061826e-07)
(9.5876421e-06 -8.7710188e-06 -2.2035901e-06)
(6.5327283e-06 -1.3450861e-05 -3.1205356e-06)
(8.5328e-07 -1.7684351e-05 -3.1474295e-06)
(7.8889804e-06 -9.3055364e-07 -2.2496669e-07)
(7.4402322e-06 -3.6955818e-06 -7.9076704e-07)
(6.0845369e-06 -6.6420819e-06 -1.3965248e-06)
(3.4626809e-06 -9.425393e-06 -1.787423e-06)
(-5.6605731e-07 -1.131732e-05 -1.7320438e-06)
(5.5384159e-06 -7.2909811e-07 -2.1269018e-07)
(5.0551195e-06 -2.7780005e-06 -5.4109032e-07)
(3.8578309e-06 -4.7688868e-06 -8.4760169e-07)
(1.85749e-06 -6.411468e-06 -1.0220618e-06)
(-8.663832e-07 -7.2231317e-06 -9.5645976e-07)
(3.8212582e-06 -5.3014383e-07 -1.4267532e-07)
(3.4004435e-06 -1.9934645e-06 -3.3650596e-07)
(2.4510694e-06 -3.3177224e-06 -5.0409232e-07)
(1.0084361e-06 -4.2887439e-06 -5.878415e-07)
(-7.9062031e-07 -4.623064e-06 -5.3300131e-07)
(2.6058879e-06 -3.6955126e-07 -7.4564877e-08)
(2.2675409e-06 -1.3837272e-06 -1.9975416e-07)
(1.5625515e-06 -2.2502963e-06 -2.9921765e-07)
(5.5214831e-07 -2.8224465e-06 -3.4046756e-07)
(-6.2080261e-07 -2.9418493e-06 -3.0463443e-07)
(1.0191891e-05 -1.5923121e-06 -4.2827348e-07)
(9.6789e-06 -4.5255061e-06 -1.2935403e-06)
(8.4874395e-06 -7.7587037e-06 -2.4013938e-06)
(6.0010432e-06 -1.1472254e-05 -3.283723e-06)
(1.2561676e-06 -1.551049e-05 -3.4123097e-06)
(7.3864569e-06 -9.7552935e-07 -3.5443998e-07)
(6.8473857e-06 -3.4462957e-06 -9.1825123e-07)
(5.5711197e-06 -5.932738e-06 -1.4905443e-06)
(3.2654691e-06 -8.3324605e-06 -1.8907255e-06)
(-2.9491833e-07 -1.0149879e-05 -1.8931858e-06)
(5.2111596e-06 -6.5778696e-07 -2.2516523e-07)
(4.7216914e-06 -2.5255634e-06 -5.7304935e-07)
(3.6012748e-06 -4.3013839e-06 -8.893618e-07)
(1.7839025e-06 -5.7856523e-06 -1.0897283e-06)
(-6.9103164e-07 -6.5853344e-06 -1.0580566e-06)
(3.6109774e-06 -4.5365776e-07 -1.2009965e-07)
(3.2037887e-06 -1.8111242e-06 -3.3575232e-07)
(2.3110308e-06 -3.030394e-06 -5.2615194e-07)
(9.815186e-07 -3.9291201e-06 -6.3109692e-07)
(-6.7726404e-07 -4.2716768e-06 -5.9138148e-07)
(2.4661775e-06 -3.1243783e-07 -5.8028334e-08)
(2.1449552e-06 -1.2666412e-06 -2.028646e-07)
(1.4832788e-06 -2.0765708e-06 -3.1222362e-07)
(5.4261969e-07 -2.6127365e-06 -3.6146783e-07)
(-5.4597913e-07 -2.7437269e-06 -3.3143247e-07)
(9.4679694e-06 -1.2958253e-06 -9.3347958e-07)
(8.7935274e-06 -4.0753739e-06 -1.7259106e-06)
(7.5974594e-06 -6.5534451e-06 -2.5007411e-06)
(5.5218124e-06 -9.5537778e-06 -3.1157511e-06)
(1.4427104e-06 -1.3426545e-05 -3.3416798e-06)
(6.8533246e-06 -7.2744539e-07 -4.743182e-07)
(6.3041279e-06 -2.9750909e-06 -1.0057832e-06)
(5.1120627e-06 -5.1300499e-06 -1.4761049e-06)
(3.0600395e-06 -7.2313982e-06 -1.8123265e-06)
(-1.3248039e-07 -8.9630672e-06 -1.8824168e-06)
(4.8714352e-06 -4.9475777e-07 -2.3368291e-07)
(4.3909229e-06 -2.1955016e-06 -5.6029847e-07)
(3.341152e-06 -3.8044944e-06 -8.463818e-07)
(1.6887952e-06 -5.1518395e-06 -1.0389742e-06)
(-5.7957769e-07 -5.9213273e-06 -1.0653486e-06)
(3.3960844e-06 -3.6300694e-07 -9.9918135e-08)
(2.9943912e-06 -1.6232798e-06 -3.0237859e-07)
(2.1557248e-06 -2.7405842e-06 -4.7864832e-07)
(9.4320657e-07 -3.5604835e-06 -5.8685134e-07)
(-6.0500403e-07 -3.8964399e-06 -5.9707235e-07)
(2.3156964e-06 -2.6436815e-07 -3.334694e-08)
(2.0133457e-06 -1.157856e-06 -1.6576507e-07)
(1.4039483e-06 -1.8985327e-06 -2.6368007e-07)
(5.3293946e-07 -2.3912035e-06 -3.1279228e-07)
(-4.9618451e-07 -2.5390996e-06 -3.0927895e-07)
)
;

boundaryField
{
    movingWall
    {
        type            fixedValue;
        value           nonuniform 0();
    }
    CPLReceiveMD
    {
        type            fixedValue;
        value           nonuniform 0();
    }
    streamwiseIn
    {
        type            cyclic;
    }
    streamwiseOut
    {
        type            cyclic;
    }
    front
    {
        type            cyclic;
    }
    back
    {
        type            cyclic;
    }
    procBoundary4to1
    {
        type            processor;
        value           nonuniform List<vector> 
25
(
(1.6833985e-05 3.128047e-06 1.1172947e-06)
(1.9674447e-05 -3.9428452e-06 -8.879656e-07)
(1.9338991e-05 -1.3531113e-05 -3.2286007e-06)
(1.4214952e-05 -2.4203635e-05 -4.9387315e-06)
(2.7039976e-06 -3.3805139e-05 -4.9720891e-06)
(1.5419657e-05 1.6232502e-06 1.2966112e-06)
(1.745041e-05 -3.8062761e-06 -7.4891373e-07)
(1.7309501e-05 -1.1742102e-05 -3.2422083e-06)
(1.3394457e-05 -2.1125851e-05 -5.0805768e-06)
(4.0261214e-06 -3.0319065e-05 -5.0811466e-06)
(1.4230439e-05 -1.0053077e-06 1.0961615e-06)
(1.5135628e-05 -4.6739448e-06 -7.1956594e-07)
(1.5007328e-05 -1.054233e-05 -3.3404707e-06)
(1.2376013e-05 -1.8166745e-05 -5.5111994e-06)
(5.1993214e-06 -2.7088551e-05 -5.7176716e-06)
(1.3317245e-05 -3.1602668e-06 -1.3423813e-07)
(1.3013777e-05 -5.7534697e-06 -1.3709473e-06)
(1.2517868e-05 -9.2703899e-06 -3.708118e-06)
(1.1017256e-05 -1.425766e-05 -5.7878091e-06)
(5.8085744e-06 -2.2717478e-05 -6.1509921e-06)
(1.2766744e-05 -2.9430927e-06 -1.8127945e-06)
(1.1561748e-05 -6.3784894e-06 -2.7012612e-06)
(1.0590467e-05 -7.6702493e-06 -4.0300775e-06)
(9.9331393e-06 -1.0618791e-05 -5.1848435e-06)
(6.0258917e-06 -1.9273721e-05 -5.8032441e-06)
)
;
    }
    procBoundary4to3
    {
        type            processor;
        value           nonuniform List<vector> 
25
(
(1.0931336e-05 3.5255201e-06 3.9701042e-07)
(8.1341154e-06 2.2266239e-06 9.9959527e-10)
(5.7812842e-06 1.4326516e-06 -8.6109404e-08)
(4.0079951e-06 9.568436e-07 -8.5615198e-08)
(2.7405409e-06 6.3752114e-07 -5.2932224e-08)
(1.0904936e-05 2.6245247e-06 5.7148461e-07)
(8.0024819e-06 1.9486811e-06 1.4250103e-07)
(5.647893e-06 1.3632824e-06 2.0295231e-08)
(3.9039646e-06 9.4679109e-07 -4.2892597e-10)
(2.6758384e-06 6.5456779e-07 2.5151207e-09)
(1.070847e-05 1.8133887e-06 4.8109565e-07)
(7.7345785e-06 1.6754345e-06 1.6360295e-07)
(5.424336e-06 1.2897216e-06 6.6850035e-08)
(3.7427934e-06 9.3906349e-07 5.0236753e-08)
(2.5683637e-06 6.6257063e-07 5.3916795e-08)
(1.0282303e-05 1.405282e-06 1.4792268e-07)
(7.3327279e-06 1.5344355e-06 1.1740458e-07)
(5.1287504e-06 1.2499162e-06 9.3931391e-08)
(3.5424541e-06 9.3385785e-07 8.9421471e-08)
(2.4325996e-06 6.5918041e-07 8.7326949e-08)
(9.5575125e-06 1.8380453e-06 -1.7476568e-07)
(6.8059659e-06 1.6214433e-06 7.4921309e-08)
(4.7901148e-06 1.2617385e-06 1.2525597e-07)
(3.3320129e-06 9.3245904e-07 1.2049049e-07)
(2.2872927e-06 6.4763914e-07 1.0090468e-07)
)
;
    }
    procBoundary4to5
    {
        type            processor;
        value           nonuniform List<vector> 
25
(
(-1.0743548e-05 -2.1004391e-05 -1.0407284e-06)
(-7.2158996e-06 -1.2172815e-05 -4.3814211e-07)
(-4.7496467e-06 -7.2151994e-06 -1.8424993e-07)
(-3.1148058e-06 -4.3592439e-06 -8.1197557e-08)
(-2.0520014e-06 -2.663051e-06 -2.6659837e-08)
(-9.0753293e-06 -2.0152007e-05 -1.4520336e-06)
(-6.4013785e-06 -1.1722936e-05 -7.9710243e-07)
(-4.3468703e-06 -6.9793947e-06 -4.2427477e-07)
(-2.903912e-06 -4.2358515e-06 -2.1793408e-07)
(-1.9289375e-06 -2.6059784e-06 -1.0819418e-07)
(-7.5339844e-06 -1.921624e-05 -2.0758628e-06)
(-5.6029652e-06 -1.1145056e-05 -1.1524863e-06)
(-3.9132999e-06 -6.636031e-06 -6.3258684e-07)
(-2.6590042e-06 -4.0431633e-06 -3.4108953e-07)
(-1.7849107e-06 -2.5117901e-06 -1.8080298e-07)
(-6.29102e-06 -1.7575747e-05 -2.6942926e-06)
(-4.8879443e-06 -1.027966e-05 -1.4571485e-06)
(-3.4956687e-06 -6.167998e-06 -8.0292274e-07)
(-2.4126871e-06 -3.7840676e-06 -4.4548064e-07)
(-1.6387564e-06 -2.3734663e-06 -2.3684973e-07)
(-5.3638161e-06 -1.571215e-05 -3.016844e-06)
(-4.3087744e-06 -9.2536863e-06 -1.5805569e-06)
(-3.1407484e-06 -5.6243631e-06 -8.3286264e-07)
(-2.2046406e-06 -3.4770903e-06 -4.429531e-07)
(-1.5220242e-06 -2.1926808e-06 -2.475007e-07)
)
;
    }
    procBoundary4to7
    {
        type            processor;
        value           nonuniform List<vector> 
25
(
(1.9115405e-06 -3.1542538e-07 -5.9266258e-08)
(1.6289595e-06 -1.0447002e-06 -8.9161185e-08)
(1.0734288e-06 -1.6422284e-06 -1.0796327e-07)
(2.8998322e-07 -1.9927099e-06 -1.0452537e-07)
(-5.8632901e-07 -1.989972e-06 -6.6915331e-08)
(1.8535082e-06 -2.841946e-07 -5.108359e-08)
(1.5875148e-06 -9.9404831e-07 -1.1195953e-07)
(1.0505458e-06 -1.5780442e-06 -1.6034465e-07)
(3.0981962e-07 -1.9280195e-06 -1.7303826e-07)
(-5.285298e-07 -1.947689e-06 -1.3344478e-07)
(1.7749604e-06 -2.4992687e-07 -2.8797528e-08)
(1.5196985e-06 -9.310693e-07 -1.1350304e-07)
(1.0123501e-06 -1.4912812e-06 -1.7665651e-07)
(3.1688309e-07 -1.8320496e-06 -1.9911335e-07)
(-4.7996392e-07 -1.8646111e-06 -1.7211367e-07)
(1.6851558e-06 -2.1695847e-07 -1.4916538e-08)
(1.4396558e-06 -8.6303689e-07 -1.0988114e-07)
(9.6493549e-07 -1.3911439e-06 -1.7438834e-07)
(3.1436246e-07 -1.7154457e-06 -1.9985386e-07)
(-4.3799383e-07 -1.7558307e-06 -1.8863172e-07)
(1.5905893e-06 -1.8748993e-07 -6.4167436e-09)
(1.3602267e-06 -7.9023491e-07 -9.6972393e-08)
(9.2237737e-07 -1.283751e-06 -1.5910886e-07)
(3.0263971e-07 -1.5918662e-06 -1.8929852e-07)
(-4.0648139e-07 -1.6440575e-06 -1.8587563e-07)
)
;
    }
    procBoundary4to13
    {
        type            processor;
        value           nonuniform List<vector> 
25
(
(8.6407459e-06 -2.5383582e-07 -9.8744583e-07)
(8.1116385e-06 -2.8300282e-06 -1.7309134e-06)
(7.097599e-06 -5.2047311e-06 -2.2001388e-06)
(5.1601045e-06 -8.0997374e-06 -2.5215239e-06)
(1.3550747e-06 -1.1589663e-05 -2.8658993e-06)
(6.3057525e-06 -2.7573268e-07 -4.0110366e-07)
(5.845599e-06 -2.2806836e-06 -8.5668904e-07)
(4.7645764e-06 -4.2783787e-06 -1.2063778e-06)
(2.8591571e-06 -6.2556835e-06 -1.4471604e-06)
(-6.3148818e-08 -7.8735475e-06 -1.5902911e-06)
(4.5256051e-06 -2.833869e-07 -1.5427082e-07)
(4.1089925e-06 -1.8221588e-06 -4.3573098e-07)
(3.1225991e-06 -3.3039274e-06 -6.5734647e-07)
(1.5649357e-06 -4.5601771e-06 -8.015505e-07)
(-4.8492011e-07 -5.29999e-06 -8.6770046e-07)
(3.1881083e-06 -2.5332179e-07 -4.7850805e-08)
(2.8250585e-06 -1.4165908e-06 -2.2203254e-07)
(2.026558e-06 -2.4476922e-06 -3.4854686e-07)
(8.6309456e-07 -3.2029383e-06 -4.2818089e-07)
(-5.3336581e-07 -3.5156072e-06 -4.6766052e-07)
(2.1995078e-06 -2.1893644e-07 -5.8987496e-09)
(1.9146221e-06 -1.061235e-06 -9.9933583e-08)
(1.3362516e-06 -1.7570313e-06 -1.7581153e-07)
(4.9702081e-07 -2.2151837e-06 -2.2353252e-07)
(-4.8068755e-07 -2.3325302e-06 -2.4380509e-07)
)
;
    }
    procBoundary4to22throughfront
    {
        type            processorCyclic;
        value           nonuniform List<vector> 
25
(
(1.2797581e-05 1.0158694e-06 -1.5763881e-07)
(8.9028362e-06 -4.5143411e-07 -2.4999124e-07)
(6.1080273e-06 -7.6752646e-07 -2.0577652e-07)
(4.151873e-06 -6.7135837e-07 -1.4822118e-07)
(2.8186668e-06 -5.0935983e-07 -1.1423606e-07)
(1.3817895e-05 -4.781261e-06 -6.537562e-07)
(8.8546108e-06 -4.2577525e-06 -4.0738054e-07)
(5.7324978e-06 -3.301066e-06 -2.3887001e-07)
(3.7381332e-06 -2.3757466e-06 -1.3973914e-07)
(2.4494754e-06 -1.6402511e-06 -9.4972305e-08)
(1.2369705e-05 -1.1925825e-05 -1.303055e-06)
(7.2573555e-06 -8.5368311e-06 -5.9586662e-07)
(4.3406815e-06 -5.8840041e-06 -2.7665272e-07)
(2.6489412e-06 -3.9543807e-06 -1.3527654e-07)
(1.6589711e-06 -2.6112812e-06 -7.3592729e-08)
(7.4373345e-06 -1.8884173e-05 -1.7544036e-06)
(3.681314e-06 -1.2286776e-05 -6.9912618e-07)
(1.8468972e-06 -7.9094802e-06 -2.7553756e-07)
(9.451184e-07 -5.057457e-06 -1.1006534e-07)
(4.936811e-07 -3.2232823e-06 -4.8485303e-08)
(-1.2370904e-06 -2.3382456e-05 -1.5844495e-06)
(-1.7423025e-06 -1.4127268e-05 -5.2862326e-07)
(-1.5297287e-06 -8.6201997e-06 -1.6308297e-07)
(-1.1691615e-06 -5.3075968e-06 -4.1201333e-08)
(-8.6571325e-07 -3.2876279e-06 -1.4573103e-08)
)
;
    }
}


// ************************************************************************* //
