/*--------------------------------*- C++ -*----------------------------------*\
| =========                 |                                                 |
| \\      /  F ield         | OpenFOAM: The Open Source CFD Toolbox           |
|  \\    /   O peration     | Version:  3.0.1                                 |
|   \\  /    A nd           | Web:      www.OpenFOAM.org                      |
|    \\/     M anipulation  |                                                 |
\*---------------------------------------------------------------------------*/
FoamFile
{
    version     2.0;
    format      ascii;
    class       volScalarField;
    location    "0.2";
    object      p;
}
// * * * * * * * * * * * * * * * * * * * * * * * * * * * * * * * * * * * * * //

dimensions      [0 2 -2 0 0 0 0];

internalField   nonuniform List<scalar> 
125
(
0.036312491
0.00016949656
-0.044821707
-0.0083597175
0.065461736
0.020460303
0.0091983963
0.00025764142
0.016212929
0.039813648
0.019969934
0.017535599
0.016821058
0.025292919
0.037677338
0.023158391
0.022684022
0.024465278
0.030358998
0.038824931
0.026556567
0.026821216
0.028921248
0.033451996
0.039561266
0.0019924915
-0.028303722
-0.039037503
0.0092614134
-0.042174335
0.0066972003
-0.0055365204
-0.0078799189
0.01649551
0.034550468
0.012681277
0.007603475
0.0099209649
0.024026846
0.040228509
0.018431117
0.016953046
0.020189025
0.029523654
0.041605667
0.023489175
0.023438694
0.026500879
0.033026125
0.041409238
-0.0098489148
-0.036200394
-0.098411211
0.0058494086
0.11744813
-0.006009816
-0.020178687
-0.027375073
0.013719213
0.06840712
0.0035655903
-0.0035237555
-0.00082061405
0.021515725
0.052383993
0.012106398
0.0094717342
0.013796102
0.027788439
0.046647119
0.019250648
0.018811678
0.022844224
0.032019336
0.04392606
-0.013266769
-0.064379438
-0.096517412
-0.029566736
0.095887231
-0.017243101
-0.04497412
-0.053267666
-0.0069215527
0.077908675
-0.0068610287
-0.021016185
-0.01913815
0.011652797
0.062018644
0.0041565832
-0.0013237198
0.0034983525
0.023216498
0.052363534
0.013908151
0.012565478
0.017414774
0.02991033
0.046912799
-0.030893598
-0.13715737
-0.21701789
-0.13460752
0.13697345
-0.035886288
-0.095060035
-0.12549744
-0.062340755
0.10071093
-0.022987636
-0.049841475
-0.055197743
-0.012248902
0.073588668
-0.0065991076
-0.016718316
-0.013226021
0.013636128
0.058105071
0.0074979218
0.0046200897
0.0097948264
0.026111485
0.04973698
)
;

boundaryField
{
    movingWall
    {
        type            zeroGradient;
    }
    CPLReceiveMD
    {
        type            zeroGradient;
    }
    streamwiseIn
    {
        type            cyclic;
    }
    streamwiseOut
    {
        type            cyclic;
    }
    front
    {
        type            cyclic;
    }
    back
    {
        type            cyclic;
    }
    procBoundary19to1throughback
    {
        type            processorCyclic;
        value           nonuniform List<scalar> 
25
(
-0.051033241
-0.058515342
-0.040481404
-0.01712091
0.0017657241
-0.29307246
-0.17789332
-0.089098818
-0.034234577
-0.0032622468
-0.52784433
-0.27016104
-0.11121519
-0.034415219
0.0014820293
-0.49298631
-0.19579007
-0.055246066
-0.00038549936
0.021274795
0.27707905
0.15341613
0.090908324
0.064061751
0.052019497
)
;
    }
    procBoundary19to10
    {
        type            processor;
        value           nonuniform List<scalar> 
25
(
0.037234529
0.071343359
0.015060453
0.016647901
-0.00034201781
0.027193332
0.029666634
0.016862127
0.019247688
0.01998322
0.024552352
0.027632959
0.023069619
0.025728452
0.030684946
0.025874536
0.026989349
0.027135943
0.030412419
0.035793053
0.028230766
0.028782368
0.030290421
0.03345001
0.038058402
)
;
    }
    procBoundary19to18
    {
        type            processor;
        value           nonuniform List<scalar> 
25
(
0.025901017
0.024173685
0.023011183
0.025136153
0.027947152
0.025336541
0.018305808
0.019639198
0.022257102
0.025613722
-0.0013438859
0.0084766115
0.013820367
0.017857874
0.022257147
0.083638829
0.016725954
0.012707032
0.013323212
0.01825518
0.070660387
0.016602926
0.0027489348
0.0058170481
0.013457587
)
;
    }
    procBoundary19to20
    {
        type            processor;
        value           nonuniform List<scalar> 
25
(
0.078468171
0.056904151
0.051215983
0.048235891
0.046043881
0.067574333
0.073944427
0.062508156
0.054673241
0.049753098
0.093713628
0.096917812
0.074302951
0.062401454
0.054593024
0.16020321
0.13874083
0.10055552
0.076339502
0.061716131
0.31826586
0.2195895
0.13993674
0.094469517
0.070079461
)
;
    }
    procBoundary19to22
    {
        type            processor;
        value           nonuniform List<scalar> 
25
(
0.029573221
0.030007061
0.031939944
0.035409462
0.039824046
0.027656737
0.028072953
0.030605483
0.035201022
0.040920108
0.024961239
0.025337593
0.028568519
0.034683104
0.04228805
0.021645237
0.021825091
0.025752608
0.033712535
0.043851287
0.018009868
0.017746531
0.022209792
0.032147312
0.045282492
)
;
    }
}


// ************************************************************************* //
