/*--------------------------------*- C++ -*----------------------------------*\
| =========                 |                                                 |
| \\      /  F ield         | OpenFOAM: The Open Source CFD Toolbox           |
|  \\    /   O peration     | Version:  3.0.1                                 |
|   \\  /    A nd           | Web:      www.OpenFOAM.org                      |
|    \\/     M anipulation  |                                                 |
\*---------------------------------------------------------------------------*/
FoamFile
{
    version     2.0;
    format      ascii;
    class       surfaceScalarField;
    location    "0.2";
    object      phi;
}
// * * * * * * * * * * * * * * * * * * * * * * * * * * * * * * * * * * * * * //

dimensions      [0 3 -1 0 0 0 0];

internalField   nonuniform List<scalar> 
300
(
0.37655464
0.027266745
0.033443491
0.48359203
0.032599944
0.15992228
0.66025185
-0.066311822
0.072120791
0.7994758
-0.067813252
0.041397716
-0.020309896
0.46411509
0.0069517578
-6.8432912e-05
0.01550736
0.050052146
0.0072650012
0.060821266
0.021558524
-0.024517274
0.052246424
-0.0055285892
-0.039092432
0.042263986
-0.045124267
0.088454039
0.0075562051
-0.0057931429
0.010700622
0.01957079
-0.003053248
0.030008799
0.0089540153
-0.015807034
0.029522578
-0.0074732164
-0.025550671
0.023022498
-0.029388243
0.023508844
0.0054791288
-0.0067406099
0.0084352814
0.0071200313
-0.0069466852
0.015437389
0.00084093208
-0.012777637
0.015761268
-0.0099725506
-0.016586395
0.011354468
-0.016589606
0.0062317693
0.0040898149
0.0060281013
0.0023030231
0.0086458895
-0.002708975
0.0083418672
-0.0095365529
0.0055176982
0.0015369946
0.34884457
0.0089252487
-0.0057868936
0.52667683
-0.052278426
0.034400401
0.54899249
-0.086335449
0.13613682
0.65206703
-0.069409853
0.0077637131
-0.44954343
-0.40483002
0.045374922
-0.0026049937
0.0075086243
0.046198454
-0.028031142
0.035769048
0.01403312
-0.051221791
0.049272328
0.035214143
-0.061324437
0.012997787
-0.14142306
-0.060287271
0.023433203
-0.0078541197
0.010814211
0.01983402
-0.019049728
0.024623196
0.0031275135
-0.031345335
0.026375785
-0.007934372
-0.038055388
0.010842539
-0.050422228
-0.01627537
0.012356959
-0.0090454435
0.010060774
0.0075723273
-0.014782937
0.015943022
-0.0034252283
-0.020400016
0.015849776
-0.015288727
-0.022675207
0.0077603308
-0.021899499
-0.0042542963
0.006728968
0.0076553694
0.002025779
0.0099106733
-0.0055063852
0.0091428941
-0.01357137
0.0046140695
-0.0018232884
0.37888565
0.018865593
-0.022624541
0.39696524
-0.028603948
0.044998056
0.69930876
-0.15447711
-0.011824939
0.74557247
-0.059245339
0.020740528
-0.037268624
-0.08538733
0.067111153
0.00021875581
0.0068291927
0.060581919
-0.031008341
0.044568216
-0.022109581
-0.068469687
0.045957339
-0.032910443
-0.058147998
0.022625742
-0.059464242
-0.055880269
0.035858897
-0.0084928723
0.014862989
0.022813287
-0.026246998
0.032903253
-0.012174978
-0.041612594
0.034595108
-0.032789261
-0.040848488
0.014308722
-0.036285075
-0.027789848
0.018152021
-0.011293177
0.013715526
0.0076330109
-0.020675373
0.020897571
-0.011427694
-0.027097865
0.020362401
-0.02698129
-0.025777093
0.0082611314
-0.019305578
-0.01240277
0.00900158
0.009871486
0.0012718566
0.012368004
-0.010007119
0.011099882
-0.019947533
0.0045442733
-0.0054408058
0.47889398
0.058708363
0.069242262
0.42216268
-0.038068159
0.13974106
0.28457421
-0.09927449
0.2249811
0.18046585
-0.054217405
0.17907539
-0.024388753
-0.14165422
0.10985097
0.012735496
0.049496058
0.062066442
-0.04388635
0.098155032
-0.046822115
-0.079873955
0.13549888
-0.10946544
-0.063726875
0.094743566
-0.029903057
-0.075813781
0.054333897
-0.0082819944
0.035415196
0.024527224
-0.037969466
0.05674012
-0.032616303
-0.055611294
0.067535598
-0.074752237
-0.04640659
0.039108591
-0.019779071
-0.036222625
0.02524558
-0.014759966
0.02200412
0.0069510153
-0.028924954
0.030175656
-0.023492954
-0.036097007
0.031305945
-0.047737891
-0.029226654
0.01542745
-0.011741571
-0.016191169
0.011409529
0.012723996
-5.3725743e-05
0.015493526
-0.016598999
0.014318519
-0.029941677
0.0061975967
-0.0071268984
0.46865757
0.032125607
0.34960696
-0.06273993
0.15701726
-0.18910773
-0.19025207
-0.15858235
0.017567766
0.15027134
-0.0066100413
0.10024333
-0.081451101
-0.087584233
-0.14776096
-0.28066211
-0.1207418
0.0090782584
0.073970011
-0.023463392
0.035203676
-0.064172476
-0.061034472
-0.091805057
-0.15008568
-0.070113062
0.00033814297
0.033003892
-0.024596154
0.0080249358
-0.043575207
-0.039384511
-0.053065572
-0.079342099
-0.038417678
-0.0025186048
0.014050266
-0.001251364
-0.024722299
-0.043257314
)
;

boundaryField
{
    movingWall
    {
        type            calculated;
        value           nonuniform 0();
    }
    CPLReceiveMD
    {
        type            calculated;
        value           uniform 0;
    }
    streamwiseIn
    {
        type            cyclic;
        value           nonuniform 0();
    }
    streamwiseOut
    {
        type            cyclic;
        value           nonuniform 0();
    }
    front
    {
        type            cyclic;
        value           nonuniform 0();
    }
    back
    {
        type            cyclic;
        value           nonuniform 0();
    }
    procBoundary19to1throughback
    {
        type            processorCyclic;
        value           nonuniform List<scalar> 
25
(
0.04289049
0.057439109
0.0401804
0.022761596
0.011874437
0.32148899
0.16684941
0.07839786
0.034678204
0.015416947
0.60651728
0.28178491
0.10771703
0.039990708
0.015360253
0.68476912
0.25002979
0.077530142
0.023910692
0.0077185624
-0.33252798
-0.12876006
-0.045204559
-0.016578151
-0.0065615492
)
;
    }
    procBoundary19to10
    {
        type            processor;
        value           nonuniform List<scalar> 
25
(
0.0067676669
-0.29951471
-0.18241853
-0.11278751
0.004424305
-0.011814983
-0.078578043
-0.065599674
-0.043879682
-0.012559515
-0.0095955788
-0.031768227
-0.027631376
-0.02016978
-0.0092403604
-0.0062546041
-0.013218897
-0.012570325
-0.0095601277
-0.0044035922
-0.0040469737
-0.0061299994
-0.0063011509
-0.0045968652
-0.0018322844
)
;
    }
    procBoundary19to18
    {
        type            processor;
        value           nonuniform List<scalar> 
25
(
-0.44402599
0.016669496
-0.0028424934
-0.0066318753
-0.0063068908
-0.31861164
-0.025737958
-0.018197829
-0.012797607
-0.0090801017
-0.38093833
-0.047732325
-0.031176152
-0.019009676
-0.011807973
-0.62935202
-0.10640298
-0.053875507
-0.02705927
-0.014962831
-0.47417084
-0.1194852
-0.06179
-0.032698221
-0.018127784
)
;
    }
    procBoundary19to20
    {
        type            processor;
        value           nonuniform List<scalar> 
25
(
0.35137665
-0.056504819
-0.037540192
-0.024762769
-0.016831759
1.9705199
-0.12426514
-0.059316855
-0.033515036
-0.021365931
0.46342212
-0.01503609
-0.044016373
-0.03590563
-0.025544409
0.26106595
-0.084236949
-0.076411071
-0.051884448
-0.03328825
-0.016718542
-0.21944637
-0.13245445
-0.075984229
-0.043725344
)
;
    }
    procBoundary19to22
    {
        type            processor;
        value           nonuniform List<scalar> 
25
(
-0.0064136159
-0.0075371936
-0.0097254135
-0.010719572
-0.0092679393
-0.0082953045
-0.011433151
-0.01369459
-0.013620132
-0.010682877
-0.010661961
-0.015396359
-0.017707925
-0.015723937
-0.0099163082
-0.014162228
-0.020602843
-0.022769093
-0.017709331
-0.0067579136
-0.019969809
-0.028167808
-0.030346554
-0.021213672
-0.0028092998
)
;
    }
}


// ************************************************************************* //
