/*--------------------------------*- C++ -*----------------------------------*\
| =========                 |                                                 |
| \\      /  F ield         | OpenFOAM: The Open Source CFD Toolbox           |
|  \\    /   O peration     | Version:  3.0.1                                 |
|   \\  /    A nd           | Web:      www.OpenFOAM.org                      |
|    \\/     M anipulation  |                                                 |
\*---------------------------------------------------------------------------*/
FoamFile
{
    version     2.0;
    format      ascii;
    class       volVectorField;
    location    "0.2";
    object      U;
}
// * * * * * * * * * * * * * * * * * * * * * * * * * * * * * * * * * * * * * //

dimensions      [0 1 -1 0 0 0 0];

internalField   nonuniform List<vector> 
125
(
(0.00062129043 3.198874e-05 4.0827704e-05)
(0.0013065859 5.3339866e-05 0.00070464357)
(0.00075777623 -7.5581865e-05 0.0003374933)
(0.0026148559 -8.6147562e-05 0.00020698074)
(0.0014648312 -3.7872758e-05 0.0007051285)
(-2.7182593e-05 3.4003837e-05 3.6314126e-05)
(6.5537645e-05 6.0837158e-05 0.00019186034)
(9.368004e-05 -0.00010879498 0.00015277219)
(2.8304214e-05 -0.00013520246 0.00011294941)
(-7.3727765e-05 -9.4099322e-05 0.00014382916)
(5.1514124e-06 -5.1822643e-06 2.5863316e-05)
(2.9851582e-05 2.086746e-06 7.9778676e-05)
(3.6963115e-05 -5.4644557e-05 7.2887224e-05)
(4.5828906e-06 -8.0988478e-05 5.5439083e-05)
(-5.4562709e-05 -9.2628398e-05 4.3323834e-05)
(1.3653039e-05 -1.5693013e-05 1.8442273e-05)
(1.5617544e-05 -1.5378487e-05 3.6258963e-05)
(1.0441185e-05 -3.75139e-05 3.5801786e-05)
(-1.0388637e-05 -5.2648852e-05 2.6555482e-05)
(-4.2758984e-05 -5.6975679e-05 1.377492e-05)
(1.2929179e-05 -1.6534146e-05 1.2620293e-05)
(8.0305297e-06 -1.9504408e-05 1.8566437e-05)
(-3.0731055e-07 -2.8243583e-05 1.8416946e-05)
(-1.4879096e-05 -3.4093936e-05 1.2771063e-05)
(-3.2686417e-05 -3.2083488e-05 4.3445169e-06)
(0.00089324882 1.5442509e-05 3.2553005e-05)
(0.00074383744 -6.8807317e-05 0.00020137349)
(0.0018259803 -0.00011247635 0.00024089492)
(0.0015930581 -9.4163402e-05 5.9358355e-05)
(0.00029098816 -0.00064283463 6.1525753e-05)
(8.8928256e-05 1.1727557e-05 2.8443348e-05)
(0.00011432135 -9.9849973e-05 0.00011300907)
(7.5354416e-05 -0.00017620542 0.00012282514)
(8.8115181e-05 -0.00017083216 6.7096001e-05)
(-9.6391169e-05 -0.00079561074 2.8838199e-05)
(5.1792907e-05 -1.3726774e-05 2.6700261e-05)
(5.4124209e-05 -5.4875838e-05 6.6804375e-05)
(2.9048698e-05 -0.00010288878 7.0279922e-05)
(-1.3542763e-06 -0.0001240422 4.3268871e-05)
(-8.0114342e-05 -0.00021267628 1.1084505e-05)
(3.1358426e-05 -2.1516378e-05 2.30097e-05)
(2.497762e-05 -4.236997e-05 3.915468e-05)
(5.5072874e-06 -6.46512e-05 3.9701271e-05)
(-2.2093186e-05 -7.5588322e-05 2.4176865e-05)
(-5.9966942e-05 -8.6648854e-05 2.8974631e-06)
(1.9748126e-05 -2.2106643e-05 1.7050457e-05)
(1.098932e-05 -3.2840948e-05 2.3215088e-05)
(-4.1699004e-06 -4.2603446e-05 2.1918055e-05)
(-2.335211e-05 -4.5170973e-05 1.2752375e-05)
(-4.3315329e-05 -3.9910586e-05 -2.4143985e-07)
(0.0011550281 2.790217e-05 -5.6313903e-05)
(0.00078332563 -3.5181576e-05 7.2597374e-05)
(0.0007348215 -0.00019382503 0.00012427776)
(0.003229041 -7.8484394e-05 6.839805e-06)
(0.00075560663 -7.0686948e-05 -0.0007780312)
(0.00015152443 2.8174321e-05 1.0885436e-05)
(0.00015959848 -7.3888076e-05 9.1412847e-05)
(4.785654e-05 -0.0002795827 0.00011115469)
(-6.5529849e-05 -0.00015136653 3.4851473e-05)
(-5.6318158e-05 -0.00014466828 -0.0001718249)
(8.4522643e-05 -1.0615886e-05 3.0438102e-05)
(7.3431137e-05 -7.1767702e-05 6.9217481e-05)
(1.3427652e-05 -0.00013776846 7.5038759e-05)
(-5.4612491e-05 -0.00012390761 3.0095521e-05)
(-8.9601527e-05 -0.00011856919 -5.6944482e-05)
(4.6492395e-05 -2.5342816e-05 2.9302202e-05)
(3.2309119e-05 -5.8967774e-05 4.5476213e-05)
(-4.5366257e-06 -8.5875765e-05 4.4680331e-05)
(-4.7192441e-05 -8.3165341e-05 1.9434249e-05)
(-7.7355066e-05 -6.8301615e-05 -2.1681e-05)
(2.6026512e-05 -2.8099745e-05 2.1783514e-05)
(1.2898128e-05 -4.5163726e-05 2.7656867e-05)
(-1.0770022e-05 -5.5991214e-05 2.5054484e-05)
(-3.7038588e-05 -5.1730101e-05 1.1133616e-05)
(-5.6530249e-05 -3.5912e-05 -9.4432129e-06)
(0.0014968113 8.2715641e-05 5.6792722e-05)
(0.001197945 -5.0019346e-05 0.000213078)
(0.00075697037 -0.00012565125 0.00026862385)
(0.00088106808 -6.6109442e-05 0.00026401835)
(0.00035102819 -3.6021179e-05 -0.00025204159)
(0.00030965803 9.855282e-05 7.1915115e-05)
(0.00021477032 -0.0001032574 0.00017580705)
(1.8459173e-05 -0.00022549636 0.0002256796)
(-0.0001947716 -0.00014753307 0.00014391093)
(-0.00022617354 -7.3919831e-05 -0.00016716077)
(0.00013924223 4.690028e-06 6.3471171e-05)
(9.8724954e-05 -0.00010081248 0.00011117523)
(-1.0073364e-05 -0.00016936313 0.0001267142)
(-0.00013333753 -0.00013945931 6.5562486e-05)
(-0.00018002309 -6.2531966e-05 -8.1843671e-05)
(6.5599455e-05 -3.0170966e-05 4.4863258e-05)
(4.0355755e-05 -8.3930585e-05 6.3456441e-05)
(-2.0534672e-05 -0.00011463547 6.3951286e-05)
(-8.8454519e-05 -9.4550214e-05 2.8927554e-05)
(-0.00012219117 -3.9147534e-05 -3.6807008e-05)
(3.2994986e-05 -3.7060911e-05 2.832771e-05)
(1.4260291e-05 -6.2139746e-05 3.4645653e-05)
(-2.0693149e-05 -7.3574838e-05 3.1487611e-05)
(-5.7849806e-05 -5.8616727e-05 1.305461e-05)
(-7.8708043e-05 -2.284281e-05 -1.6181994e-05)
(0.0014645732 4.299319e-05 0.00019683407)
(0.00087457561 -7.253976e-05 0.00059544192)
(0.00046129522 -0.00023689067 0.0010387376)
(0.00033422857 -0.00019868002 0.0010898397)
(-0.00068259454 1.4423351e-05 -0.00056626662)
(0.00034631033 3.4820714e-05 0.00014420113)
(0.00031335271 -0.0001758784 0.00033748274)
(1.5794904e-05 -0.00042161369 0.00052145028)
(-0.00045887777 -0.00034991054 0.00043018742)
(-0.00061669677 2.5759761e-05 -0.00025573279)
(0.0001705771 -3.7667805e-05 9.6930797e-05)
(0.00013667418 -0.00018411833 0.00017032427)
(-3.218514e-05 -0.00029949678 0.00021899624)
(-0.00026317049 -0.00023889086 0.00014567224)
(-0.00034672407 1.1784819e-05 -0.00010201794)
(8.2209619e-05 -6.0486279e-05 5.6572781e-05)
(5.1397156e-05 -0.00013549735 8.1295878e-05)
(-3.9065505e-05 -0.00018110235 8.9066392e-05)
(-0.00014795073 -0.0001356732 4.9068613e-05)
(-0.00019183119 -2.6398989e-06 -4.115748e-05)
(4.0246369e-05 -5.6185893e-05 3.0934399e-05)
(1.6058032e-05 -8.995669e-05 3.8636803e-05)
(-3.2361062e-05 -0.00010425705 3.706089e-05)
(-8.4708193e-05 -7.451328e-05 1.7333796e-05)
(-0.00010843376 -6.5420624e-06 -1.7210836e-05)
)
;

boundaryField
{
    movingWall
    {
        type            fixedValue;
        value           nonuniform 0();
    }
    CPLReceiveMD
    {
        type            fixedValue;
        value           nonuniform List<vector> 
25
(
(0.7411987 0 0)
(0.53399693 0 0)
(0.92343435 0 0)
(0.50239009 0 0)
(0.13746786 0 0)
(0.87453627 0 0)
(0.55464316 0 0)
(0.51619706 0 0)
(0.20785657 0 0)
(0.1161076 0 0)
(0.79314862 0 0)
(1.4518806 0 0)
(0.54954089 0 0)
(0.11321485 0 0)
(0.57782352 0 0)
(4.8266192 0 0)
(0.5310398 0 0)
(6.7752067 0 0)
(0.5468682 0 0)
(1.3411079 0 0)
(3.092685 0 0)
(0.024170656 0 0)
(0.23201084 0 0)
(0.69591736 0 0)
(0.42942206 0 0)
)
;
    }
    streamwiseIn
    {
        type            cyclic;
    }
    streamwiseOut
    {
        type            cyclic;
    }
    front
    {
        type            cyclic;
    }
    back
    {
        type            cyclic;
    }
    procBoundary19to1throughback
    {
        type            processorCyclic;
        value           nonuniform List<vector> 
25
(
(0.0022189666 2.9929518e-05 0.00013107814)
(0.00062672949 -1.5018725e-06 0.00015570548)
(0.00025405457 -8.2938424e-05 8.8746421e-05)
(0.00010890514 -9.6167367e-05 4.6034168e-05)
(4.9225402e-05 -7.7048346e-05 2.268119e-05)
(0.0030901581 -0.00030828934 0.00088685478)
(0.00059230087 -0.00052868659 0.0004079825)
(0.00022079049 -0.00035699939 0.00016828118)
(7.2849375e-05 -0.00021561805 6.8819513e-05)
(2.0386785e-05 -0.00012479127 2.9004166e-05)
(0.0021668506 -0.00064343764 0.003098784)
(0.00011148982 -0.0010457382 0.00087348477)
(-3.4725249e-05 -0.00060174708 0.0002598756)
(-5.2761924e-05 -0.00029657083 8.3624398e-05)
(-4.1996153e-05 -0.00014662111 2.931005e-05)
(-0.0011621682 -0.00072627164 0.0044668779)
(-0.00097210963 -0.0010922091 0.00092846235)
(-0.00045435178 -0.00052057799 0.0002125993)
(-0.00021867839 -0.00022288865 5.4011277e-05)
(-0.00011212153 -0.00010113406 1.5223018e-05)
(-0.0022443527 0.00027485093 -0.002009382)
(-0.0013644189 0.00039067161 -0.00043971914)
(-0.00059898487 0.00015204362 -0.00011283227)
(-0.00027716315 4.5659615e-05 -3.4618293e-05)
(-0.00013893065 1.0825604e-05 -1.2535589e-05)
)
;
    }
    procBoundary19to10
    {
        type            processor;
        value           nonuniform List<vector> 
25
(
(0.0063817452 1.9946148e-05 4.3913484e-05)
(0.00035746748 0.00044455494 0.00021682851)
(0.0012768724 7.2513558e-05 0.00025332802)
(0.00044677257 6.220899e-08 0.00020121217)
(0.00061102758 -8.0884652e-05 -0.00016066562)
(-0.0002095235 2.6690462e-05 3.3355115e-05)
(-2.195977e-06 0.00052559589 8.2139821e-05)
(0.00015380556 8.8668839e-05 9.8347219e-05)
(9.670905e-05 -1.9094606e-05 7.5752602e-05)
(2.0793661e-05 -0.0001331569 -6.3006201e-07)
(-5.172321e-05 4.1450333e-06 1.9569288e-05)
(7.1002721e-06 0.00010072568 3.6044358e-05)
(5.3388117e-05 1.4081658e-05 4.3312983e-05)
(2.8208965e-05 -3.7648228e-05 3.5785121e-05)
(-1.9248563e-05 -8.2621954e-05 1.3223826e-05)
(-3.5306387e-06 -8.2733587e-06 1.146111e-05)
(7.6181052e-06 1.8842258e-05 1.8114463e-05)
(1.5210765e-05 -1.018093e-05 2.0596231e-05)
(-6.6326254e-08 -3.2920308e-05 1.7546779e-05)
(-2.6731084e-05 -4.7669545e-05 8.2096782e-06)
(7.5417513e-06 -1.187327e-05 6.8812498e-06)
(5.1926659e-06 -6.8919098e-06 9.3077369e-06)
(1.625473e-06 -1.6427369e-05 1.0532935e-05)
(-9.2796831e-06 -2.4834343e-05 8.6187365e-06)
(-2.4474942e-05 -2.7267564e-05 3.9395316e-06)
)
;
    }
    procBoundary19to18
    {
        type            processor;
        value           nonuniform List<vector> 
25
(
(0.0018710464 -7.1447897e-05 -0.00060898842)
(5.4250411e-06 -9.6577857e-05 -0.00010997208)
(2.0015982e-05 -3.9043829e-05 -2.3738703e-05)
(2.2492414e-05 -2.3156355e-05 1.3698994e-06)
(2.0056474e-05 -1.5937161e-05 6.3600632e-06)
(0.00063170206 5.4635078e-05 -0.00020101998)
(3.3255971e-05 6.0454786e-05 -6.5655861e-05)
(3.4417334e-05 2.4200638e-06 -1.2566832e-05)
(3.0453833e-05 -1.032529e-05 6.3153289e-06)
(2.4342855e-05 -1.4177212e-05 1.0117756e-05)
(0.00071624399 6.4150103e-05 -0.00072860183)
(5.039551e-05 9.210806e-05 -0.00012941168)
(4.4026376e-05 3.2927434e-05 -1.8231868e-05)
(3.6368634e-05 -4.717669e-07 1.1235189e-05)
(2.8405018e-05 -1.3902552e-05 1.4410008e-05)
(0.00056304798 0.00065447763 -0.00015752436)
(1.7992728e-05 0.00077148052 -1.8911864e-05)
(4.1893336e-05 0.00014306723 2.5120787e-05)
(4.1008721e-05 2.2316579e-05 2.7739221e-05)
(3.2740507e-05 -1.4355683e-05 2.0425798e-05)
(0.00032419094 0.00020283232 -0.00017467535)
(6.2130822e-05 0.0002748235 2.0407477e-05)
(6.77538e-05 7.9578123e-05 5.5511919e-05)
(5.5377121e-05 -5.1667812e-06 3.7990197e-05)
(4.0424523e-05 -2.8411771e-05 2.2406389e-05)
)
;
    }
    procBoundary19to20
    {
        type            processor;
        value           nonuniform List<vector> 
25
(
(0.00016361416 1.2529305e-07 -1.4667103e-05)
(-0.00018662321 -2.9339276e-05 -4.2472209e-06)
(-0.00011784134 -4.959427e-05 -5.4267418e-06)
(-7.261675e-05 -3.0772428e-05 -6.680384e-06)
(-4.6532067e-05 -1.5528429e-05 -6.0693263e-06)
(0.010492405 -0.00015376739 0.00047184235)
(-0.00039544283 -0.00021398548 8.4709137e-05)
(-0.00017817339 -8.7456709e-05 8.230092e-06)
(-9.440351e-05 -3.8789211e-05 -1.0419222e-05)
(-5.7242104e-05 -1.5750684e-05 -1.1091459e-05)
(0.001593311 -0.00038750379 -5.6365645e-06)
(-2.1729927e-05 -0.00049345234 -9.4883092e-05)
(-0.00010677985 -0.00014472266 -6.9813176e-05)
(-9.3430626e-05 -5.0093968e-05 -4.2789984e-05)
(-6.5033156e-05 -1.3120024e-05 -2.42591e-05)
(0.00056746921 -0.00024311951 -0.0009365167)
(-0.00020749259 -0.00027827904 -0.00041632468)
(-0.00017117711 -3.5363757e-05 -0.00019155995)
(-0.00011959034 6.7649001e-06 -8.5548568e-05)
(-7.8262831e-05 1.3721666e-05 -3.8848905e-05)
(0.00079696856 0.00013333807 -0.0017020223)
(-0.00033286711 0.00025216174 -0.00070818144)
(-0.00023402531 0.00018605407 -0.00027328952)
(-0.00015072959 0.00010261718 -0.00010590335)
(-9.3601243e-05 5.4263638e-05 -4.2888816e-05)
)
;
    }
    procBoundary19to22
    {
        type            processor;
        value           nonuniform List<vector> 
25
(
(1.0085792e-05 -1.4844834e-05 8.2088992e-06)
(3.9081052e-06 -1.7613029e-05 1.0309923e-05)
(-4.1483452e-06 -2.1204502e-05 9.6257079e-06)
(-1.4228546e-05 -2.2110884e-05 6.2188513e-06)
(-2.4193483e-05 -1.7968427e-05 1.1318967e-06)
(1.2694688e-05 -1.9230487e-05 1.1444101e-05)
(4.4808149e-06 -2.5006773e-05 1.3495362e-05)
(-6.8227423e-06 -2.8731738e-05 1.195364e-05)
(-1.9400334e-05 -2.7432593e-05 6.5406989e-06)
(-3.0546664e-05 -2.0106517e-05 -9.3105257e-07)
(1.5231217e-05 -2.4681273e-05 1.4347934e-05)
(4.4176452e-06 -3.3060441e-05 1.6177415e-05)
(-1.1103008e-05 -3.6622363e-05 1.3708939e-05)
(-2.7113238e-05 -3.1547015e-05 5.9884923e-06)
(-3.8745001e-05 -1.8642584e-05 -4.6132337e-06)
(1.7815385e-05 -3.2217164e-05 1.6777109e-05)
(3.8418208e-06 -4.34254e-05 1.8663478e-05)
(-1.7011665e-05 -4.6353007e-05 1.5685449e-05)
(-3.7722506e-05 -3.5403892e-05 6.1443734e-06)
(-4.9852799e-05 -1.308436e-05 -7.4370785e-06)
(2.0664692e-05 -4.3363994e-05 1.6585345e-05)
(3.3259863e-06 -5.7688794e-05 1.8644356e-05)
(-2.3622111e-05 -6.0175782e-05 1.6020122e-05)
(-5.0235765e-05 -4.1625829e-05 6.5512797e-06)
(-6.3054302e-05 -6.0247294e-06 -7.4890763e-06)
)
;
    }
}


// ************************************************************************* //
