/*--------------------------------*- C++ -*----------------------------------*\
| =========                 |                                                 |
| \\      /  F ield         | OpenFOAM: The Open Source CFD Toolbox           |
|  \\    /   O peration     | Version:  3.0.1                                 |
|   \\  /    A nd           | Web:      www.OpenFOAM.org                      |
|    \\/     M anipulation  |                                                 |
\*---------------------------------------------------------------------------*/
FoamFile
{
    version     2.0;
    format      ascii;
    class       volVectorField;
    location    "0.1";
    object      U;
}
// * * * * * * * * * * * * * * * * * * * * * * * * * * * * * * * * * * * * * //

dimensions      [0 1 -1 0 0 0 0];

internalField   nonuniform List<vector> 
125
(
(-5.4301967e-07 1.4949313e-06 1.974356e-07)
(1.4767949e-07 1.5413757e-06 2.0937629e-07)
(7.9308982e-07 1.3363262e-06 1.840669e-07)
(1.2571774e-06 9.3734314e-07 1.362787e-07)
(1.4982268e-06 4.1372243e-07 7.6700733e-08)
(-3.8641686e-07 9.71262e-07 1.4727948e-07)
(9.0635572e-08 1.0070064e-06 1.5061351e-07)
(5.51087e-07 8.6851394e-07 1.2989602e-07)
(8.9001546e-07 6.0236366e-07 9.5569568e-08)
(1.0563575e-06 2.6309927e-07 5.5906685e-08)
(-2.9540686e-07 6.2518485e-07 1.2091387e-07)
(4.4931434e-08 6.3281468e-07 1.1627429e-07)
(3.8844713e-07 5.3529232e-07 9.7791301e-08)
(6.5176276e-07 3.6518022e-07 7.1116129e-08)
(7.74134e-07 1.5311638e-07 4.0608536e-08)
(-2.5678408e-07 3.582647e-07 9.6137287e-08)
(7.4304342e-10 3.4709157e-07 9.3670348e-08)
(2.8345254e-07 2.8732827e-07 8.0756976e-08)
(5.0783952e-07 1.936312e-07 5.9542585e-08)
(6.0547326e-07 7.6610169e-08 3.3498665e-08)
(-2.4460118e-07 1.1682877e-07 7.5882319e-08)
(-2.5998343e-08 1.0943735e-07 8.023386e-08)
(2.3492822e-07 9.0087575e-08 7.244942e-08)
(4.4093468e-07 6.0983721e-08 5.3837423e-08)
(5.2475124e-07 2.3309431e-08 2.9150106e-08)
(-5.0656998e-07 1.4317724e-06 9.9224617e-08)
(1.4847076e-07 1.4705706e-06 1.2074919e-07)
(7.6245589e-07 1.2686006e-06 1.1675813e-07)
(1.2122283e-06 8.8162535e-07 9.5130589e-08)
(1.4599497e-06 3.7804749e-07 6.5312281e-08)
(-3.6703351e-07 9.4502816e-07 7.4909224e-08)
(8.7309628e-08 9.6952894e-07 8.583494e-08)
(5.2671145e-07 8.3367703e-07 7.9785259e-08)
(8.5748729e-07 5.7615374e-07 6.3946962e-08)
(1.027235e-06 2.4687375e-07 4.522703e-08)
(-2.8437748e-07 6.0491031e-07 6.0831876e-08)
(3.711963e-08 6.0861062e-07 6.4297695e-08)
(3.6908068e-07 5.1693564e-07 5.8928356e-08)
(6.2542497e-07 3.5331294e-07 4.7246147e-08)
(7.4939751e-07 1.4452544e-07 3.2738478e-08)
(-2.4172654e-07 3.3433862e-07 4.2209294e-08)
(-6.6504235e-10 3.3171789e-07 4.9610474e-08)
(2.7141376e-07 2.8027377e-07 4.9456343e-08)
(4.8507709e-07 1.9004464e-07 4.0509173e-08)
(5.8250511e-07 7.2619676e-08 2.6361341e-08)
(-2.2119172e-07 1.0490256e-07 2.6264239e-08)
(-1.6940787e-08 1.0410514e-07 4.1887832e-08)
(2.2735086e-07 8.8626661e-08 4.5522631e-08)
(4.1766679e-07 6.0109935e-08 3.6448902e-08)
(5.0171195e-07 2.133739e-08 2.0596605e-08)
(-4.7223293e-07 1.420584e-06 -2.5835817e-08)
(1.65213e-07 1.4387202e-06 2.6493677e-09)
(7.6747122e-07 1.2256166e-06 2.9264358e-08)
(1.2057316e-06 8.3871292e-07 4.8691322e-08)
(1.4559538e-06 3.402239e-07 6.3515854e-08)
(-3.4929823e-07 9.3286926e-07 -2.0608938e-08)
(9.5511606e-08 9.5055486e-07 -3.5818795e-09)
(5.2919903e-07 8.1068417e-07 1.2788252e-08)
(8.5545723e-07 5.5447922e-07 2.6695216e-08)
(1.0266571e-06 2.3052546e-07 3.8765369e-08)
(-2.730402e-07 5.9248492e-07 -2.2810974e-08)
(4.3027914e-08 5.9659022e-07 -8.6464583e-09)
(3.7139558e-07 5.049634e-07 3.9906405e-09)
(6.2557289e-07 3.4174243e-07 1.5675945e-08)
(7.4912885e-07 1.3425069e-07 2.7225936e-08)
(-2.2904512e-07 3.2370376e-07 -2.5965497e-08)
(7.9900926e-09 3.2469231e-07 -1.1160095e-08)
(2.7435124e-07 2.7393402e-07 -6.1136655e-10)
(4.8474452e-07 1.828431e-07 8.3762226e-09)
(5.8141502e-07 6.4473403e-08 1.832879e-08)
(-2.0672099e-07 1.0089426e-07 -2.6032581e-08)
(-6.7399509e-09 1.017271e-07 -1.2334488e-08)
(2.2948929e-07 8.6166217e-08 -4.3808648e-09)
(4.1600866e-07 5.6933575e-08 2.2432428e-09)
(5.0027017e-07 1.75513e-08 1.1468852e-08)
(-4.3749482e-07 1.465809e-06 -1.6794964e-07)
(2.0357093e-07 1.4578836e-06 -1.2792051e-07)
(8.0849784e-07 1.2201919e-06 -7.7129362e-08)
(1.2464798e-06 8.157038e-07 -1.8709977e-08)
(1.4897186e-06 3.0463727e-07 4.4476647e-08)
(-3.2891232e-07 9.48053e-07 -1.2160787e-07)
(1.2070682e-07 9.5823312e-07 -9.5247064e-08)
(5.5698854e-07 8.0840332e-07 -6.1782042e-08)
(8.8346441e-07 5.4313836e-07 -2.3150207e-08)
(1.0543702e-06 2.1058383e-07 1.8461933e-08)
(-2.5992081e-07 5.9955375e-07 -1.0019707e-07)
(6.3921245e-08 6.010324e-07 -7.8188951e-08)
(3.9340309e-07 5.0353602e-07 -5.2876285e-08)
(6.4866027e-07 3.3499394e-07 -2.2783992e-08)
(7.707956e-07 1.2408886e-07 1.0029796e-08)
(-2.2024224e-07 3.311105e-07 -8.2550742e-08)
(2.4689088e-08 3.2802683e-07 -6.8200214e-08)
(2.9095008e-07 2.7190126e-07 -5.1200003e-08)
(5.0401724e-07 1.7661257e-07 -2.7057881e-08)
(5.9842269e-07 5.6865481e-08 2.7556974e-09)
(-2.0212993e-07 1.04829e-07 -6.9833044e-08)
(4.710929e-09 1.0292795e-07 -6.495043e-08)
(2.4192859e-07 8.4856988e-08 -5.3722248e-08)
(4.3351651e-07 5.3979026e-08 -3.2030094e-08)
(5.1539137e-07 1.4482018e-08 -4.843049e-10)
(-4.1548089e-07 1.5539024e-06 -2.7926127e-07)
(2.5603329e-07 1.5205418e-06 -2.2435337e-07)
(8.7668175e-07 1.2479008e-06 -1.531295e-07)
(1.3273376e-06 8.1111861e-07 -7.4713688e-08)
(1.5575119e-06 2.8554742e-07 4.5056259e-09)
(-3.1116354e-07 1.0006218e-06 -1.976589e-07)
(1.5533743e-07 1.0002864e-06 -1.655219e-07)
(6.0129588e-07 8.3493725e-07 -1.2075327e-07)
(9.3570121e-07 5.5040521e-07 -6.7330752e-08)
(1.1098453e-06 1.9607861e-07 -6.3088673e-09)
(-2.5027189e-07 6.3154204e-07 -1.4538987e-07)
(9.0348697e-08 6.2363707e-07 -1.2680262e-07)
(4.2680054e-07 5.1554544e-07 -9.7591879e-08)
(6.8847897e-07 3.3783476e-07 -6.0985827e-08)
(8.1389964e-07 1.1854445e-07 -1.6477911e-08)
(-2.2330915e-07 3.5405016e-07 -1.0776643e-07)
(3.9340831e-08 3.3791453e-07 -1.0216989e-07)
(3.1549358e-07 2.7307466e-07 -8.5469162e-08)
(5.3870022e-07 1.7358908e-07 -6.0789044e-08)
(6.3151149e-07 5.3959271e-08 -3.0229263e-08)
(-2.1710217e-07 1.1359136e-07 -8.4121217e-08)
(9.3708454e-09 1.0495983e-07 -8.8475446e-08)
(2.6240963e-07 8.3631143e-08 -8.0189797e-08)
(4.692466e-07 5.1954558e-08 -6.1651952e-08)
(5.4275431e-07 1.4311944e-08 -3.8959373e-08)
)
;

boundaryField
{
    movingWall
    {
        type            fixedValue;
        value           uniform (0 0 0);
    }
    CPLReceiveMD
    {
        type            fixedValue;
        value           nonuniform 0();
    }
    streamwiseIn
    {
        type            cyclic;
    }
    streamwiseOut
    {
        type            cyclic;
    }
    front
    {
        type            cyclic;
    }
    back
    {
        type            cyclic;
    }
    procBoundary15to6
    {
        type            processor;
        value           nonuniform List<vector> 
25
(
(-5.5674044e-07 1.6068638e-06 2.7801249e-07)
(1.6183946e-07 1.6507505e-06 2.6510504e-07)
(8.3555348e-07 1.4236528e-06 2.3119814e-07)
(1.3195944e-06 9.9160354e-07 1.7113173e-07)
(1.5799289e-06 4.3160149e-07 8.5507858e-08)
(-3.9738094e-07 1.0215499e-06 1.9433033e-07)
(1.046931e-07 1.0626309e-06 1.8566839e-07)
(5.8175539e-07 9.1995264e-07 1.6223959e-07)
(9.3147662e-07 6.4131631e-07 1.2198939e-07)
(1.1081992e-06 2.8296594e-07 6.8907147e-08)
(-3.0033584e-07 6.5605251e-07 1.55788e-07)
(6.0242195e-08 6.6555378e-07 1.4186046e-07)
(4.1423884e-07 5.6607468e-07 1.1840644e-07)
(6.8260774e-07 3.8933992e-07 8.8364794e-08)
(8.0733318e-07 1.6693346e-07 5.5317841e-08)
(-2.5482821e-07 3.7935107e-07 1.3790003e-07)
(1.4715268e-08 3.6773811e-07 1.1538894e-07)
(3.0554153e-07 3.0559742e-07 8.9369429e-08)
(5.323354e-07 2.0730984e-07 6.5641216e-08)
(6.2827135e-07 8.4070863e-08 4.4978117e-08)
(-2.3650893e-07 1.2513361e-07 1.2672438e-07)
(-1.3507887e-08 1.175183e-07 9.8930406e-08)
(2.537473e-07 9.691409e-08 7.3575994e-08)
(4.6096611e-07 6.580024e-08 5.5010475e-08)
(5.4148814e-07 2.5677566e-08 4.0599261e-08)
)
;
    }
    procBoundary15to12
    {
        type            processor;
        value           nonuniform List<vector> 
25
(
(-7.5297351e-07 2.2995088e-06 3.2237096e-07)
(2.4924072e-07 2.3214269e-06 3.3079341e-07)
(1.1551196e-06 1.9968783e-06 2.8494821e-07)
(1.8126192e-06 1.4048038e-06 2.0554776e-07)
(2.1675686e-06 6.2419778e-07 1.0946069e-07)
(-7.1028988e-07 2.1449985e-06 1.4925648e-07)
(2.5048139e-07 2.1795722e-06 1.8849048e-07)
(1.1156566e-06 1.8711132e-06 1.9049476e-07)
(1.7480404e-06 1.3081055e-06 1.6257719e-07)
(2.0758462e-06 5.7771139e-07 1.1872556e-07)
(-6.5946747e-07 2.1101562e-06 -5.4645547e-08)
(2.90479e-07 2.1152628e-06 9.1050761e-09)
(1.1292063e-06 1.7913959e-06 6.1196987e-08)
(1.74085e-06 1.2310843e-06 9.2616765e-08)
(2.0475027e-06 5.2384521e-07 1.1217559e-07)
(-6.029097e-07 2.191291e-06 -2.5492619e-07)
(3.6632392e-07 2.1482288e-06 -1.7706864e-07)
(1.1991683e-06 1.7796132e-06 -8.40662e-08)
(1.799019e-06 1.1879936e-06 4.4440992e-09)
(2.0945482e-06 4.6551313e-07 7.3138409e-08)
(-5.3753232e-07 2.3534372e-06 -4.212622e-07)
(4.6133899e-07 2.2623404e-06 -3.5080096e-07)
(1.310719e-06 1.8309021e-06 -2.4327153e-07)
(1.8980546e-06 1.1832848e-06 -1.168728e-07)
(2.201762e-06 4.1887759e-07 1.2072451e-08)
)
;
    }
    procBoundary15to16
    {
        type            processor;
        value           nonuniform List<vector> 
25
(
(1.5026756e-06 -1.7386792e-07 1.6299499e-08)
(1.0418931e-06 -1.2172915e-07 1.4605402e-08)
(7.4369066e-07 -8.5704032e-08 1.3180455e-08)
(5.6546676e-07 -5.5620719e-08 1.3776341e-08)
(4.7905603e-07 -1.9587226e-08 1.4061227e-08)
(1.4651689e-06 -1.6698578e-07 5.2857597e-08)
(1.0187064e-06 -1.3439841e-07 3.4246592e-08)
(7.2910688e-07 -9.1417001e-08 2.2240996e-08)
(5.545704e-07 -5.751595e-08 1.6450935e-08)
(4.7122103e-07 -2.0537883e-08 1.1967827e-08)
(1.4576579e-06 -1.8213269e-07 7.8460241e-08)
(1.0152409e-06 -1.5234575e-07 5.3830385e-08)
(7.273965e-07 -1.0349969e-07 3.7074038e-08)
(5.5480219e-07 -6.5891058e-08 2.4293807e-08)
(4.7459787e-07 -2.40662e-08 1.5922661e-08)
(1.4822447e-06 -2.2447421e-07 8.2848096e-08)
(1.0355385e-06 -1.7578462e-07 6.0038001e-08)
(7.4150904e-07 -1.2095358e-07 4.1986805e-08)
(5.6739269e-07 -7.8663386e-08 2.3038593e-08)
(4.8841343e-07 -2.8902965e-08 1.0454056e-08)
(1.5410964e-06 -2.8079807e-07 6.4630864e-08)
(1.0793535e-06 -1.9320704e-07 3.2307411e-08)
(7.7252766e-07 -1.404991e-07 1.7777558e-08)
(5.9279617e-07 -9.7421071e-08 1.0321398e-08)
(5.0932275e-07 -3.6645013e-08 8.3885974e-09)
)
;
    }
    procBoundary15to17throughstreamwiseIn
    {
        type            processorCyclic;
        value           nonuniform List<vector> 
25
(
(-1.1292705e-06 1.1748191e-06 1.5920583e-07)
(-7.8018473e-07 7.5939355e-07 1.2026609e-07)
(-5.6077277e-07 5.031819e-07 1.0031593e-07)
(-4.3243309e-07 2.9634741e-07 8.0568674e-08)
(-3.7281004e-07 9.7318556e-08 6.4916657e-08)
(-1.0761445e-06 1.1273142e-06 4.9962451e-08)
(-7.4353073e-07 7.4733644e-07 4.8716309e-08)
(-5.2850631e-07 4.8330364e-07 4.1931032e-08)
(-4.0155931e-07 2.6858786e-07 2.1871507e-08)
(-3.4291742e-07 8.3630716e-08 4.0076491e-09)
(-1.0322542e-06 1.1285509e-06 -6.6425794e-08)
(-7.191011e-07 7.5136213e-07 -4.170307e-08)
(-5.1330763e-07 4.763371e-07 -3.3103129e-08)
(-3.8960511e-07 2.5842516e-07 -3.2644394e-08)
(-3.3195435e-07 7.9460232e-08 -3.1396286e-08)
(-1.0174694e-06 1.1838862e-06 -1.8467255e-07)
(-7.1803388e-07 7.8065911e-07 -1.3338175e-07)
(-5.1911853e-07 4.9236232e-07 -1.0095727e-07)
(-3.9562072e-07 2.7028671e-07 -7.3936183e-08)
(-3.3681511e-07 8.4870722e-08 -5.4569259e-08)
(-1.0393923e-06 1.294173e-06 -2.6105366e-07)
(-7.391626e-07 8.3507741e-07 -1.7959813e-07)
(-5.4125053e-07 5.3578267e-07 -1.3739287e-07)
(-4.1579342e-07 3.047991e-07 -1.0818949e-07)
(-3.5640308e-07 9.8808709e-08 -8.9753362e-08)
)
;
    }
    procBoundary15to24
    {
        type            processor;
        value           nonuniform List<vector> 
25
(
(-4.0079452e-07 1.6894123e-06 -3.266757e-07)
(3.297027e-07 1.6431627e-06 -2.8684597e-07)
(9.5813752e-07 1.3427101e-06 -2.2145105e-07)
(1.4041149e-06 8.6524585e-07 -1.4217578e-07)
(1.6290631e-06 2.8625595e-07 -5.1971283e-08)
(-3.1483609e-07 1.0819244e-06 -2.2307123e-07)
(1.9761244e-07 1.0557839e-06 -2.0181613e-07)
(6.5517969e-07 8.6394093e-07 -1.6292717e-07)
(9.9790881e-07 5.5686622e-07 -1.1158225e-07)
(1.1540084e-06 1.8960029e-07 -5.1495699e-08)
(-2.4933056e-07 6.8944621e-07 -1.6290369e-07)
(1.1171923e-07 6.6438442e-07 -1.4892254e-07)
(4.5921988e-07 5.3882013e-07 -1.2440164e-07)
(7.2977424e-07 3.4153565e-07 -9.4308012e-08)
(8.4955899e-07 1.0016846e-07 -5.9300988e-08)
(-2.1422263e-07 3.9235778e-07 -1.2839141e-07)
(4.6986359e-08 3.6633169e-07 -1.1678351e-07)
(3.3233092e-07 2.8928326e-07 -9.8690446e-08)
(5.5925714e-07 1.7593113e-07 -8.0568548e-08)
(6.6953313e-07 3.4374451e-08 -6.4291902e-08)
(-2.0085201e-07 1.2844734e-07 -1.0915066e-07)
(8.6423489e-09 1.1659686e-07 -9.6871949e-08)
(2.6875209e-07 9.0114968e-08 -8.1122105e-08)
(4.7474694e-07 5.3100892e-08 -6.879342e-08)
(5.8543191e-07 5.7443156e-09 -6.5097103e-08)
)
;
    }
}


// ************************************************************************* //
