/*--------------------------------*- C++ -*----------------------------------*\
| =========                 |                                                 |
| \\      /  F ield         | OpenFOAM: The Open Source CFD Toolbox           |
|  \\    /   O peration     | Version:  3.0.1                                 |
|   \\  /    A nd           | Web:      www.OpenFOAM.org                      |
|    \\/     M anipulation  |                                                 |
\*---------------------------------------------------------------------------*/
FoamFile
{
    version     2.0;
    format      ascii;
    class       surfaceScalarField;
    location    "0.2";
    object      phi;
}
// * * * * * * * * * * * * * * * * * * * * * * * * * * * * * * * * * * * * * //

dimensions      [0 3 -1 0 0 0 0];

internalField   nonuniform List<scalar> 
300
(
1.2213975
0.61106105
-3.1977862
1.5582173
0.071243846
-0.69060344
1.1757276
0.21040666
-0.010856656
0.48477022
0.39936323
0.10562167
0.082580439
-0.049753558
0.092719535
0.319799
-0.59395345
0.031288145
0.16165604
-0.22632078
0.018454412
0.15756524
-0.037924424
0.15636759
0.18665746
0.015112215
0.067307613
-0.015829131
-0.023653942
0.1335932
-0.12362395
0.0031949377
0.11358815
-0.068866925
0.02362613
0.10389146
-0.018505291
0.083388561
0.097005204
-0.00091865113
0.050106601
-0.007824385
-0.040649367
0.055862885
-0.029573776
-0.010242085
0.064753396
-0.020581931
0.012857065
0.063606811
-0.0082073109
0.041836696
0.05638982
-0.0034100642
0.035321328
-0.0040088034
-0.031450975
-0.0083198367
-0.012236324
-0.0068555767
0.0047624983
-0.0036519447
0.021161865
-0.0021272871
-0.0018893215
3.243344
3.2192795
3.1194534
0.98558498
0.66006996
0.90699223
0.38206212
0.20097796
0.39160203
0.41345604
0.17805964
-0.10380335
0.045645699
-0.29251733
0.44591454
0.79097121
0.58491337
0.23318828
0.35113137
0.29529466
0.087618525
0.17566608
0.13305468
0.14022555
0.13993993
0.000646816
0.064295784
-0.057271874
0.028576062
0.22794597
0.12351077
0.053338458
0.16346655
0.094173461
0.042461615
0.11354935
0.054517412
0.079634375
0.092247889
0.0096378729
0.052864956
-0.01182304
-0.031751792
0.07715875
0.031023181
0.0019944973
0.078509269
0.030662102
0.017777651
0.067904059
0.021631038
0.041266063
0.057496551
0.0078467422
0.037487941
-0.00042170963
-0.029993723
0.0093353905
-0.0090735888
0.011031734
0.0063068386
0.0091392674
0.021405709
0.004975923
0.0013300789
1.0886006
0.66726195
0.86233355
1.6298249
-0.062747193
0.42841873
2.0507404
-0.094495654
0.065186874
1.5193782
0.40809867
0.019510969
0.35235806
0.17145246
0.16339283
0.32305134
0.3397976
0.057030709
0.11573681
0.22323827
-0.069990128
0.063394166
0.10226541
0.096140445
0.18910609
0.053556773
0.14463957
0.044734843
-0.0055813448
0.13319392
0.1182932
0.011302513
0.095197097
0.097808182
-0.0061925645
0.076149927
0.059294137
0.057104447
0.096394598
0.039050998
0.07080149
0.022167896
-0.032132636
0.055240919
0.042341776
-0.0074927544
0.058146963
0.042993896
0.0038126492
0.054830302
0.031598225
0.031936446
0.055171566
0.020958623
0.040918498
0.011332714
-0.02823079
0.01621856
-0.01106851
0.019072142
0.0021513303
0.016043944
0.017699256
0.011355183
0.0063408118
0.57928698
0.16800718
0.36746955
0.85071473
-0.10710162
0.26417106
0.8920875
-0.012141781
0.036001255
0.55767146
0.30005616
0.053879502
0.14605158
0.10199698
0.030399077
0.10744497
0.17874272
-0.044696789
0.034900645
0.1563665
-0.087489193
0.05365956
0.079273841
0.079601514
0.13337767
0.05314113
0.09076785
0.043607228
-0.027919939
0.058027171
0.082062416
-0.026244807
0.046026481
0.084982989
-0.022516173
0.054168059
0.055030049
0.040596404
0.075236999
0.034102397
0.056421869
0.024352649
-0.031878857
0.029213042
0.035802498
-0.019167929
0.034833226
0.041414982
-0.0061783792
0.04039578
0.032375621
0.022383086
0.045431554
0.022248266
0.035607254
0.014535707
-0.025409365
0.01588081
-0.01411337
0.019926789
-0.0024982626
0.017849204
0.01268546
0.013482723
0.008643034
0.51884189
-0.05247023
1.3163256
-0.3775429
1.271244
0.016913501
0.5790196
0.43132801
0.12233118
0.011803962
-0.0013072374
-0.14514744
-0.09075922
-0.14390327
0.032622076
0.066216477
0.16894875
0.072862952
-0.023308821
0.010166522
-0.059728356
-0.0047366616
-0.048208936
0.032593482
0.033339985
0.071595562
0.046462086
-0.026348871
0.0091813839
-0.028357679
0.012982226
-0.016411826
0.026173721
0.014858031
0.037282499
0.029644345
-0.021363609
-0.016288988
-0.0067926733
0.0078433702
)
;

boundaryField
{
    movingWall
    {
        type            calculated;
        value           nonuniform 0();
    }
    CPLReceiveMD
    {
        type            calculated;
        value           uniform 0;
    }
    streamwiseIn
    {
        type            cyclic;
        value           nonuniform 0();
    }
    streamwiseOut
    {
        type            cyclic;
        value           nonuniform 0();
    }
    front
    {
        type            cyclic;
        value           nonuniform 0();
    }
    back
    {
        type            cyclic;
        value           nonuniform 0();
    }
    procBoundary2to0throughstreamwiseOut
    {
        type            processorCyclic;
        value           nonuniform List<scalar> 
25
(
0.43041272
0.16927944
0.095611106
0.053360861
0.030050545
0.61064459
0.16296835
0.095139255
0.053102064
0.030501009
0.70303592
0.201799
0.097031136
0.050094043
0.028246688
0.48100541
0.13609899
0.072827674
0.039935265
0.023355287
0.44344002
0.10671642
0.055755073
0.030160435
0.018025664
)
;
    }
    procBoundary2to1
    {
        type            processor;
        value           nonuniform List<scalar> 
25
(
0.47048096
0.43520637
0.20877634
0.10380203
0.053913643
-12.779146
0.80355925
0.28692871
0.12191327
0.059055671
0.50136499
0.42564267
0.20098807
0.099013089
0.052199042
-0.25260422
0.19167378
0.11400902
0.067264264
0.040050216
-0.17115404
0.051491057
0.053210814
0.040601914
0.028099403
)
;
    }
    procBoundary2to5
    {
        type            processor;
        value           nonuniform List<scalar> 
25
(
0.024891637
0.035409362
0.037922187
0.03435126
0.02410521
0.030466013
0.039660805
0.03979
0.0353302
0.025094717
0.024453921
0.032974105
0.034747474
0.03324844
0.02519356
0.014966626
0.022696532
0.026970174
0.028090054
0.022561299
0.0064202797
0.01259187
0.018835702
0.022392804
0.018999737
)
;
    }
    procBoundary2to11
    {
        type            processor;
        value           nonuniform List<scalar> 
25
(
0.07238301
-0.15566694
0.064105304
0.31466289
0.11540343
0.064270778
0.02652657
0.06221189
0.10538761
0.05265039
0.040602379
0.035374368
0.043609781
0.049924066
0.028282748
0.022426672
0.025660756
0.026895773
0.025259546
0.016023889
0.011823109
0.015270163
0.01568933
0.013800022
0.0092323022
)
;
    }
    procBoundary2to20throughfront
    {
        type            processorCyclic;
        value           nonuniform List<scalar> 
25
(
0.89471562
0.35729498
0.12472098
0.04436463
0.016681833
0.28289409
0.19692367
0.089857974
0.03900255
0.01692299
0.18287435
0.10343005
0.051728124
0.025349947
0.012458887
0.18596299
0.059700525
0.030856305
0.01508572
0.0079071614
0.021448061
0.018140566
0.012755131
0.0073249429
0.0042870499
)
;
    }
}


// ************************************************************************* //
