/*--------------------------------*- C++ -*----------------------------------*\
| =========                 |                                                 |
| \\      /  F ield         | OpenFOAM: The Open Source CFD Toolbox           |
|  \\    /   O peration     | Version:  3.0.1                                 |
|   \\  /    A nd           | Web:      www.OpenFOAM.org                      |
|    \\/     M anipulation  |                                                 |
\*---------------------------------------------------------------------------*/
FoamFile
{
    version     2.0;
    format      ascii;
    class       volVectorField;
    location    "0.2";
    object      U;
}
// * * * * * * * * * * * * * * * * * * * * * * * * * * * * * * * * * * * * * //

dimensions      [0 1 -1 0 0 0 0];

internalField   nonuniform List<vector> 
125
(
(0.00097485116 0.00075171109 -0.0050614464)
(0.0025240429 3.0794154e-05 -0.0012360754)
(0.0061538177 0.00026705941 -0.00030920486)
(0.00064376164 0.00056353816 -0.00011288944)
(0.0011576599 0.00011297902 -8.5511838e-06)
(-0.00039059793 0.0011514402 -0.0011801809)
(0.00017792083 0.00025081711 -0.00052587518)
(3.7500732e-05 0.00046255831 -0.00017857336)
(0.00024636109 0.00077706243 -7.1191113e-05)
(0.00045105914 0.00019710765 -3.5777414e-05)
(-0.00028681349 0.00056691471 -0.00031004543)
(-2.6901872e-05 0.0003645204 -0.0001961296)
(2.7720793e-05 0.00032520125 -8.7831762e-05)
(0.0001349057 0.0003319831 -4.1070903e-05)
(0.00022993993 0.00014657781 -2.4944624e-05)
(-0.00017854325 0.00023716571 -9.2417821e-05)
(-6.4379127e-05 0.00022594051 -7.4286258e-05)
(1.6816014e-06 0.00020918426 -4.1937231e-05)
(6.7647142e-05 0.00018836763 -2.3128421e-05)
(0.00012060697 0.00010643349 -1.4185337e-05)
(-0.00010653278 0.00010118516 -3.1255448e-05)
(-5.4883505e-05 0.0001258504 -2.9704479e-05)
(-9.8534227e-06 0.00012686965 -2.0131192e-05)
(3.2154785e-05 0.00011268246 -1.2543342e-05)
(6.5074184e-05 7.402342e-05 -7.7268941e-06)
(0.0011410634 0.0040171585 -7.460487e-05)
(0.0050783409 0.00079792602 0.00027500178)
(0.0017664796 0.00024466189 0.00057574656)
(0.00075654412 0.00024564739 -7.5239662e-06)
(0.0012251473 6.3401521e-05 -0.00050738407)
(-0.00041934472 0.0050061168 -1.454877e-06)
(0.00087386335 0.0012383947 8.9286007e-05)
(0.00038187481 0.0004645478 0.00013210967)
(0.00028876906 0.00041917113 7.2316371e-06)
(0.00040525865 0.00014417552 -0.00010861361)
(-0.00031732289 0.0012738186 2.555171e-06)
(0.00010462218 0.00064605989 3.4598719e-05)
(0.00011451432 0.00036246482 4.6369085e-05)
(0.0001495781 0.00028778926 6.7745312e-06)
(0.0002230773 0.00014664927 -3.0196082e-05)
(-0.00019039756 0.00038140735 2.0534909e-06)
(-3.7660302e-05 0.00030420967 1.3167156e-05)
(2.3192405e-05 0.00022774128 1.6909138e-05)
(7.2873633e-05 0.00018574304 5.1933025e-06)
(0.00012074864 0.00011250955 -7.2785973e-06)
(-0.00011077013 0.00013470747 1.2930601e-06)
(-4.9043769e-05 0.00014837088 5.3429872e-06)
(-3.9525456e-06 0.00013498664 6.8740182e-06)
(3.4346239e-05 0.00011550391 3.5382976e-06)
(6.5488085e-05 7.7884923e-05 -8.1879226e-07)
(0.00029513788 0.00082490928 0.0049681644)
(0.0021635417 -0.00015513773 0.0015923393)
(0.0061546424 -0.00017708339 0.00056621857)
(0.0058786328 0.00057828723 -8.8922106e-05)
(0.0012766605 0.00051219362 -0.0001666233)
(-0.00028925863 0.0012286497 0.0011590585)
(0.00031120236 1.0194874e-05 0.00063461184)
(-4.4421482e-05 -6.7319587e-05 0.0002887168)
(8.8079671e-06 0.00079136344 6.5727211e-05)
(0.00039644757 0.00067473907 -2.3509102e-05)
(-0.00024594865 0.00057042309 0.00030412865)
(1.6911861e-05 0.00028840133 0.00023874592)
(-1.0336954e-07 0.00021000039 0.0001394112)
(5.8341635e-05 0.00032994469 5.7366986e-05)
(0.00019968255 0.00024791308 8.2656057e-06)
(-0.00016238345 0.0002359036 9.1867428e-05)
(-4.9523491e-05 0.00019668474 9.2168171e-05)
(-6.2922603e-06 0.00016968916 6.5756313e-05)
(4.3459397e-05 0.00018513138 3.5644214e-05)
(0.00010573835 0.00013581077 1.2031758e-05)
(-9.9625182e-05 9.9886192e-05 3.1960951e-05)
(-4.9302549e-05 0.00011508986 3.770324e-05)
(-1.1658114e-05 0.00011306243 3.142707e-05)
(2.4461973e-05 0.00010963671 2.0392283e-05)
(5.7833843e-05 8.1731319e-05 9.480994e-06)
(0.0010729095 0.00020559793 0.0015620652)
(0.00057758441 -0.00016059291 0.00087980194)
(0.0038731893 -3.314957e-05 1.0140869e-05)
(0.0011237353 0.00040035331 7.7858665e-05)
(0.0009150441 0.00020665104 0.00047507501)
(-0.0001707976 0.00033962406 0.00065589517)
(3.5057834e-06 -0.00011598775 0.00047586378)
(-0.00018620497 3.7431177e-05 0.00020748501)
(-2.2858881e-05 0.00056551666 0.00012301215)
(0.00028673788 0.00031920023 0.00013205509)
(-0.00016598222 0.00020662639 0.00025110291)
(-6.0095191e-05 0.00010361417 0.00022915007)
(-6.686469e-05 0.00013950345 0.00013829441)
(1.8432581e-05 0.00025770584 8.6883278e-05)
(0.00014735782 0.00018218994 6.0386938e-05)
(-0.0001222031 0.00010923947 9.7644859e-05)
(-6.3771431e-05 0.00010316674 0.00010517262)
(-3.3331595e-05 0.00011975705 7.8842771e-05)
(1.9149049e-05 0.00014876832 5.3770151e-05)
(8.070436e-05 0.00011372493 3.2463869e-05)
(-8.0795832e-05 5.5431755e-05 4.0121272e-05)
(-4.9577656e-05 7.274165e-05 4.87125e-05)
(-2.1263511e-05 8.4637961e-05 4.2174475e-05)
(1.2400156e-05 9.1165867e-05 3.1042818e-05)
(4.5333261e-05 7.2114956e-05 1.8740072e-05)
(0.0011188042 -8.2048395e-05 0.0005968982)
(0.00033558846 -0.00055953433 0.0003280632)
(0.0073824819 2.0428495e-05 0.00015068609)
(0.00021590037 0.00062344546 0.00027887925)
(0.0016750669 0.00016874762 0.00023625981)
(-7.4889356e-07 -8.3100309e-05 0.00031727407)
(-0.00013727014 -0.00064090804 0.00026005063)
(-0.00039624644 6.1003359e-05 0.00017997911)
(-6.976301e-05 0.0008003867 0.00016445401)
(0.00026687514 0.00025962696 0.00011860019)
(-8.2831517e-05 1.2172528e-05 0.00015469692)
(-9.5896517e-05 -8.2290216e-05 0.00015510116)
(-0.00014236994 8.1358094e-05 0.00012329559)
(-1.9567125e-05 0.00026070269 9.9564745e-05)
(0.00011736164 0.00014832179 6.5947544e-05)
(-8.1904907e-05 2.4921898e-05 7.2797185e-05)
(-6.8325587e-05 1.6247071e-05 8.3895731e-05)
(-5.7694771e-05 7.356918e-05 7.4022619e-05)
(-2.9195347e-06 0.00012929092 5.9244001e-05)
(5.8615244e-05 9.4163919e-05 3.8278047e-05)
(-6.1017597e-05 1.9814787e-05 3.4624901e-05)
(-4.7249352e-05 3.3123295e-05 4.3989278e-05)
(-2.9327806e-05 5.6349078e-05 4.1829755e-05)
(1.0275613e-06 7.3293459e-05 3.4127787e-05)
(3.2567413e-05 6.0340372e-05 2.2378299e-05)
)
;

boundaryField
{
    movingWall
    {
        type            fixedValue;
        value           nonuniform 0();
    }
    CPLReceiveMD
    {
        type            fixedValue;
        value           nonuniform List<vector> 
25
(
(1.1023996 0 0)
(1.2723637 0 0)
(0.11722814 0 0)
(1.2699967 0 0)
(0.65849702 0 0)
(2.7322186 0 0)
(0.35080005 0 0)
(0.95253909 0 0)
(0.10294932 0 0)
(0.37211253 0 0)
(0.32730097 0 0)
(0.045555636 0 0)
(0.32721686 0 0)
(8.7404716 0 0)
(0.28459043 0 0)
(0.26379793 0 0)
(0.51908067 0 0)
(0.22053881 0 0)
(0.12862265 0 0)
(0.79188986 0 0)
(0.068863553 0 0)
(0.3007728 0 0)
(0.45433961 0 0)
(0.46604202 0 0)
(0.36137341 0 0)
)
;
    }
    streamwiseIn
    {
        type            cyclic;
    }
    streamwiseOut
    {
        type            cyclic;
    }
    front
    {
        type            cyclic;
    }
    back
    {
        type            cyclic;
    }
    procBoundary2to0throughstreamwiseOut
    {
        type            processorCyclic;
        value           nonuniform List<vector> 
25
(
(0.0013387359 -3.0387451e-05 3.8420544e-05)
(0.00041866514 -3.7941914e-05 1.3861553e-06)
(0.00023242519 1.579007e-06 -6.249228e-06)
(0.00013252844 2.3501962e-05 -5.600413e-06)
(7.7663734e-05 2.7799823e-05 -3.8863043e-06)
(0.001769558 -6.7706077e-05 -7.6220287e-05)
(0.00038396038 -7.6149019e-05 -4.7427912e-05)
(0.00022626841 3.495437e-06 -2.3482925e-05)
(0.0001320169 2.8153981e-05 -9.6753196e-06)
(7.7863864e-05 3.089301e-05 -3.7020428e-06)
(0.0018027007 -1.5195629e-06 -0.00013626665)
(0.0004856431 1.487717e-05 -5.264163e-05)
(0.00023207253 3.9331617e-05 -1.8352407e-05)
(0.00012574459 4.3282842e-05 -4.4000593e-06)
(7.2736434e-05 3.6398752e-05 2.3746098e-07)
(0.0013657389 1.6000026e-05 -2.2205532e-05)
(0.00032037186 4.1848378e-05 -6.8186938e-06)
(0.00017866992 5.1737016e-05 4.5623691e-06)
(0.00010339596 4.6743847e-05 6.6470591e-06)
(6.178279e-05 3.6693098e-05 5.7763923e-06)
(0.00077560456 1.3806755e-05 1.8477545e-05)
(0.00025011279 4.1585687e-05 1.6250839e-05)
(0.00014093722 5.2797362e-05 1.6304315e-05)
(8.1816523e-05 4.4496868e-05 1.2788344e-05)
(4.9560189e-05 3.3897663e-05 8.9871159e-06)
)
;
    }
    procBoundary2to1
    {
        type            processor;
        value           nonuniform List<vector> 
25
(
(-0.0022443527 0.00027485093 -0.002009382)
(-0.0013644189 0.00039067161 -0.00043971914)
(-0.00059898487 0.00015204362 -0.00011283227)
(-0.00027716315 4.5659615e-05 -3.4618293e-05)
(-0.00013893065 1.0825604e-05 -1.2535589e-05)
(0.0663972 0.0015851413 -3.8780467e-05)
(-0.0027061741 0.0019233732 -1.2426093e-05)
(-0.00086936413 0.00041688614 -6.2662715e-06)
(-0.0003382603 9.7656845e-05 -2.9926526e-06)
(-0.00015491223 2.3079613e-05 -1.5646155e-06)
(-0.001492099 0.0003012494 0.0018276776)
(-0.0013830728 0.00042322752 0.00038615104)
(-0.00059596716 0.00016147711 8.740548e-05)
(-0.00027247529 5.0361276e-05 2.3973719e-05)
(-0.00013572532 1.3048471e-05 7.7289369e-06)
(0.00053906567 0.00014276928 0.00046074274)
(-0.00060377145 0.00018224986 0.00018748907)
(-0.00033142506 5.4708548e-05 6.603307e-05)
(-0.0001810919 1.7980259e-05 2.4694082e-05)
(-0.00010213121 2.0721384e-06 1.0104911e-05)
(0.00022996309 2.7799955e-05 0.00029868975)
(-0.00016306994 2.8321743e-05 0.00011022501)
(-0.00014652098 -1.3179379e-06 4.9324401e-05)
(-0.00010477693 -5.5669076e-06 2.0940708e-05)
(-6.9688274e-05 -7.0910383e-06 9.5784718e-06)
)
;
    }
    procBoundary2to5
    {
        type            processor;
        value           nonuniform List<vector> 
25
(
(-6.3518482e-05 4.6251467e-05 -1.1974012e-05)
(-3.8694664e-05 6.8948026e-05 -1.269102e-05)
(-1.1486379e-05 7.5441914e-05 -9.7808751e-06)
(1.4800876e-05 6.9117833e-05 -6.6751435e-06)
(3.5724312e-05 4.9918831e-05 -4.2525539e-06)
(-6.5106316e-05 5.5341308e-05 7.5452065e-07)
(-3.7381149e-05 7.6177573e-05 2.4066153e-06)
(-9.6746042e-06 7.9015568e-05 3.1019186e-06)
(1.577188e-05 7.1085378e-05 2.1475571e-06)
(3.6137717e-05 5.174659e-05 4.2930401e-07)
(-6.0342082e-05 4.5373952e-05 1.2591734e-05)
(-3.6347267e-05 6.4784069e-05 1.6538969e-05)
(-1.1745438e-05 7.0131393e-05 1.5407647e-05)
(1.2128261e-05 6.6860328e-05 1.1306174e-05)
(3.2500365e-05 5.129092e-05 6.2617921e-06)
(-5.1533599e-05 2.8870966e-05 1.757347e-05)
(-3.4565238e-05 4.6185607e-05 2.3206082e-05)
(-1.4907401e-05 5.5350227e-05 2.212943e-05)
(6.6260236e-06 5.689749e-05 1.74269e-05)
(2.6231571e-05 4.6099143e-05 1.107292e-05)
(-4.169058e-05 1.3443989e-05 1.6931446e-05)
(-3.1791308e-05 2.7495254e-05 2.2886859e-05)
(-1.7524622e-05 3.9575581e-05 2.300394e-05)
(1.0717488e-06 4.5477135e-05 1.9273589e-05)
(1.9219434e-05 3.9038528e-05 1.3031834e-05)
)
;
    }
    procBoundary2to11
    {
        type            processor;
        value           nonuniform List<vector> 
25
(
(0.001234361 -7.4320474e-05 9.7206167e-05)
(8.7795567e-05 -0.0002287565 -0.00041596582)
(0.0025364496 -3.8751262e-06 0.0002205841)
(0.00018670314 0.0002857896 0.00082348524)
(0.0006957104 8.8778501e-05 0.00023072816)
(-2.0807469e-05 -0.00010286997 0.00011531167)
(-0.00013386169 -0.0002890998 3.5280538e-05)
(-0.00028144947 1.0023606e-05 0.00014602428)
(-8.4753953e-05 0.00038606456 0.00024910372)
(0.00013858063 0.00014867564 0.00010516695)
(-6.0205322e-05 -3.7850719e-05 7.7720208e-05)
(-9.149657e-05 -7.2541038e-05 6.7668844e-05)
(-0.00012240102 3.3546887e-05 9.4262069e-05)
(-3.8915735e-05 0.00015249602 0.00011223143)
(6.4097374e-05 0.00010186779 6.0010947e-05)
(-5.9248075e-05 -1.0832605e-05 4.4806037e-05)
(-6.2546012e-05 -7.9452216e-06 5.1803834e-05)
(-5.798336e-05 3.82912e-05 5.7856859e-05)
(-1.6595546e-05 8.3331384e-05 5.6502368e-05)
(3.424869e-05 7.0155696e-05 3.5352526e-05)
(-4.6385029e-05 -4.339952e-07 2.4597984e-05)
(-4.2372808e-05 1.1732764e-05 3.199944e-05)
(-3.1125011e-05 3.3619278e-05 3.4064559e-05)
(-7.051306e-06 5.1195457e-05 3.0823232e-05)
(2.0192586e-05 4.6868745e-05 2.0729419e-05)
)
;
    }
    procBoundary2to20throughfront
    {
        type            processorCyclic;
        value           nonuniform List<vector> 
25
(
(0.00079696856 0.00013333807 -0.0017020223)
(-0.00033286711 0.00025216174 -0.00070818144)
(-0.00023402531 0.00018605407 -0.00027328952)
(-0.00015072959 0.00010261718 -0.00010590335)
(-9.3601243e-05 5.4263638e-05 -4.2888816e-05)
(0.00012490209 8.7191118e-05 -0.00065240587)
(-0.0001278126 0.00019791797 -0.00043904865)
(-0.00011759144 0.00019446981 -0.00021765439)
(-8.8140906e-05 0.00013778442 -0.0001001104)
(-6.016803e-05 8.677563e-05 -4.5480791e-05)
(0.0002789051 0.00011396477 -0.00016203751)
(-7.307535e-05 0.00024310978 -0.0001883385)
(-4.0544647e-05 0.00022582856 -0.00011610943)
(-2.796546e-05 0.0001600407 -6.4083995e-05)
(-2.1113688e-05 0.00010283029 -3.3873176e-05)
(0.0011478232 0.00020390854 -0.00026549479)
(0.00014625505 0.00034731254 -9.0611335e-05)
(8.6690992e-05 0.00023972663 -5.2899941e-05)
(4.5121726e-05 0.0001572155 -3.3718845e-05)
(2.1941938e-05 9.9050636e-05 -2.0840239e-05)
(0.0008360628 9.0621203e-05 -3.8165395e-05)
(0.00033257741 0.00016056349 -2.5428706e-05)
(0.00018825556 0.00012505723 -2.1111738e-05)
(0.00010322063 9.5291832e-05 -1.576692e-05)
(5.6831047e-05 6.7952142e-05 -1.0967538e-05)
)
;
    }
}


// ************************************************************************* //
