/*--------------------------------*- C++ -*----------------------------------*\
| =========                 |                                                 |
| \\      /  F ield         | OpenFOAM: The Open Source CFD Toolbox           |
|  \\    /   O peration     | Version:  3.0.1                                 |
|   \\  /    A nd           | Web:      www.OpenFOAM.org                      |
|    \\/     M anipulation  |                                                 |
\*---------------------------------------------------------------------------*/
FoamFile
{
    version     2.0;
    format      ascii;
    class       volScalarField;
    location    "0.1";
    object      p;
}
// * * * * * * * * * * * * * * * * * * * * * * * * * * * * * * * * * * * * * //

dimensions      [0 2 -2 0 0 0 0];

internalField   nonuniform List<scalar> 
125
(
-0.051864799
-0.051860336
-0.051996836
-0.052244136
-0.052559317
-0.052127702
-0.052117144
-0.052206852
-0.0523796
-0.052606614
-0.052298176
-0.052283261
-0.052342927
-0.052467221
-0.052635274
-0.052403884
-0.052383292
-0.052422705
-0.052516423
-0.052646744
-0.052455352
-0.052430013
-0.052458815
-0.052537701
-0.052649046
-0.051798071
-0.051796459
-0.051942731
-0.052205565
-0.052542332
-0.052083689
-0.052074683
-0.052169991
-0.052351694
-0.052589466
-0.052264457
-0.052252382
-0.052316067
-0.052445231
-0.052617949
-0.052374594
-0.052358565
-0.05240225
-0.052499458
-0.052631832
-0.052427805
-0.052408589
-0.052442791
-0.052524987
-0.052637239
-0.051740607
-0.05173986
-0.051892267
-0.052167315
-0.052521233
-0.052043448
-0.052034703
-0.052134024
-0.05232331
-0.052570489
-0.052233766
-0.052222343
-0.052288893
-0.052422835
-0.052600662
-0.052350017
-0.052335064
-0.052381444
-0.052482163
-0.0526179
-0.052406403
-0.052388885
-0.052426035
-0.052511292
-0.052626769
-0.051701026
-0.051697184
-0.051851788
-0.052134021
-0.052498529
-0.052012667
-0.052002569
-0.052104094
-0.052298605
-0.052552903
-0.05220946
-0.052197305
-0.052266161
-0.052404458
-0.052587352
-0.052331824
-0.05231627
-0.052364934
-0.052469263
-0.052609094
-0.052392172
-0.052374298
-0.052413455
-0.052501731
-0.052621108
-0.051684019
-0.051672979
-0.051826594
-0.052110883
-0.052477734
-0.051993624
-0.051981339
-0.052084022
-0.052281853
-0.052540268
-0.052192943
-0.052179789
-0.052250737
-0.052392847
-0.052580331
-0.052321722
-0.05230454
-0.05235481
-0.052462311
-0.052606347
-0.05238717
-0.052366839
-0.052406858
-0.052497607
-0.052620331
)
;

boundaryField
{
    movingWall
    {
        type            zeroGradient;
    }
    CPLReceiveMD
    {
        type            zeroGradient;
    }
    streamwiseIn
    {
        type            cyclic;
    }
    streamwiseOut
    {
        type            cyclic;
    }
    front
    {
        type            cyclic;
    }
    back
    {
        type            cyclic;
    }
    procBoundary24to6throughback
    {
        type            processorCyclic;
        value           nonuniform List<scalar> 
25
(
-0.051696819
-0.052002035
-0.052196823
-0.052322301
-0.052386331
-0.051676396
-0.051985074
-0.05218222
-0.052305803
-0.052367357
-0.051821146
-0.052082917
-0.052251242
-0.052355929
-0.052407942
-0.052099214
-0.05227659
-0.052391648
-0.052463481
-0.052499516
-0.052461641
-0.052530612
-0.052576789
-0.052607615
-0.052624223
)
;
    }
    procBoundary24to15
    {
        type            processor;
        value           nonuniform List<scalar> 
25
(
-0.051928876
-0.051911328
-0.052031423
-0.052262515
-0.052563163
-0.052173031
-0.052155517
-0.052235254
-0.052396394
-0.0526101
-0.052329708
-0.052312035
-0.052365901
-0.052483011
-0.052641707
-0.052426025
-0.052405347
-0.052441785
-0.052531734
-0.052657589
-0.052471541
-0.052447405
-0.052475296
-0.052552552
-0.052663323
)
;
    }
    procBoundary24to21
    {
        type            processor;
        value           nonuniform List<scalar> 
25
(
-0.05145108
-0.051458994
-0.051669007
-0.052032995
-0.052491944
-0.051348056
-0.051367297
-0.051596617
-0.051983582
-0.052470855
-0.051262198
-0.051284122
-0.0515243
-0.051929428
-0.052439893
-0.051207955
-0.051223684
-0.051465802
-0.051881119
-0.052406358
-0.051188521
-0.05119122
-0.051428698
-0.051846354
-0.05237805
)
;
    }
    procBoundary24to25
    {
        type            processor;
        value           nonuniform List<scalar> 
25
(
-0.052896745
-0.0528419
-0.052807557
-0.052784639
-0.052772284
-0.05290072
-0.052840373
-0.052799662
-0.052773351
-0.052760827
-0.052896043
-0.052833588
-0.052790919
-0.052764483
-0.052752945
-0.052884465
-0.052823549
-0.052783269
-0.052759927
-0.052750413
-0.052869931
-0.052813284
-0.052778186
-0.052759708
-0.052752725
)
;
    }
    procBoundary24to26throughstreamwiseIn
    {
        type            processorCyclic;
        value           nonuniform List<scalar> 
25
(
-0.052020933
-0.05224328
-0.052383147
-0.052469111
-0.052510494
-0.051957828
-0.052200964
-0.052352332
-0.052443997
-0.052487193
-0.051908076
-0.052165099
-0.052324967
-0.052422591
-0.052469175
-0.051878622
-0.052140319
-0.052304571
-0.052407259
-0.052457432
-0.051871078
-0.052128137
-0.052292577
-0.052399668
-0.052453572
)
;
    }
}


// ************************************************************************* //
