/*--------------------------------*- C++ -*----------------------------------*\
| =========                 |                                                 |
| \\      /  F ield         | OpenFOAM: The Open Source CFD Toolbox           |
|  \\    /   O peration     | Version:  3.0.1                                 |
|   \\  /    A nd           | Web:      www.OpenFOAM.org                      |
|    \\/     M anipulation  |                                                 |
\*---------------------------------------------------------------------------*/
FoamFile
{
    version     2.0;
    format      ascii;
    class       surfaceScalarField;
    location    "0.1";
    object      phi;
}
// * * * * * * * * * * * * * * * * * * * * * * * * * * * * * * * * * * * * * //

dimensions      [0 3 -1 0 0 0 0];

internalField   nonuniform List<scalar> 
300
(
-8.8714775e-06
0.0005251176
-0.00013331167
0.00027262623
0.0005129077
-0.00012760377
0.00049387801
0.00041942758
-0.00010807121
0.00062941849
0.00027052587
-7.7036191e-05
9.4452238e-05
-3.3913617e-05
-2.1071156e-05
0.00034046379
-8.7912465e-05
0.00017915875
0.00033174941
-8.480805e-05
0.00034498281
0.00027174272
-7.3618887e-05
0.00045334551
0.00017497636
-5.5729365e-05
5.7232555e-05
-3.424078e-05
-2.9781942e-05
0.00021110487
-6.7345202e-05
0.00011915655
0.00019976558
-6.167059e-05
0.00024821853
0.00015931653
-5.3640574e-05
0.0003356012
9.8253017e-05
-4.3914914e-05
2.2902608e-05
-3.459655e-05
-4.1120083e-05
0.00010277118
-5.8494577e-05
7.8708887e-05
9.3289365e-05
-4.9381704e-05
0.00018715554
7.2100996e-05
-4.0850415e-05
0.00026025026
4.2485946e-05
-3.3879764e-05
4.5959847e-06
-2.9777185e-05
-5.0590153e-05
-5.4997956e-05
5.750391e-05
-4.2773189e-05
0.00015749764
-3.1992377e-05
0.00022229993
-2.5384388e-05
-2.3572666e-05
-3.1629946e-06
0.00057053526
-0.00011478627
0.0002921598
0.00055572011
-0.0001130565
0.00052491562
0.00045389337
-0.00010079777
0.00067254482
0.00029184168
-7.639683e-05
9.4128033e-05
-4.2136248e-05
-1.7966147e-05
0.00036103799
-8.0373741e-05
0.00019034828
0.00035489269
-7.9848069e-05
0.00036287302
0.00029172542
-7.1831367e-05
0.00047483534
0.00018679359
-5.6685108e-05
5.6877429e-05
-3.7897212e-05
-2.4107024e-05
0.00021995759
-6.1292535e-05
0.00012718668
0.00021205594
-5.9989765e-05
0.00025794438
0.00017210755
-5.4268722e-05
0.00034491996
0.00010828856
-4.4726664e-05
2.772195e-05
-3.4523024e-05
-3.2007073e-05
0.00010625422
-4.9080694e-05
8.7240205e-05
9.9886778e-05
-4.693369e-05
0.00019412623
8.0950172e-05
-4.1548911e-05
0.00026435296
5.0974031e-05
-3.4537807e-05
1.0793842e-05
-2.7823341e-05
-3.8365335e-05
-4.2730547e-05
6.8284732e-05
-3.9338363e-05
0.00016410564
-3.3452549e-05
0.0002241117
-2.7341564e-05
-2.0902283e-05
-1.4337095e-06
0.00060495561
-7.9036984e-05
0.00030441821
0.00058893691
-8.5223156e-05
0.0005493172
0.00048286751
-8.084086e-05
0.0007068069
0.00031155944
-6.6493803e-05
9.8370127e-05
-4.5344218e-05
-1.7440575e-05
0.00038012224
-6.1466422e-05
0.00019836486
0.00037475416
-6.4172364e-05
0.00037801955
0.00030929089
-5.9772484e-05
0.00049362393
0.00019875415
-4.9336977e-05
6.0252599e-05
-3.512045e-05
-2.2804221e-05
0.00023217042
-4.8538922e-05
0.00013290769
0.00022511291
-5.0001959e-05
0.00026748653
0.00018482807
-4.5397684e-05
0.00035512387
0.00011847791
-3.6698731e-05
3.4421838e-05
-2.6579881e-05
-2.986003e-05
0.0001125932
-3.6331451e-05
9.2624975e-05
0.00010747159
-3.7530389e-05
0.00020113737
8.9037382e-05
-3.2971673e-05
0.00027106753
5.8162702e-05
-2.5762194e-05
1.7708881e-05
-1.7584291e-05
-3.4973135e-05
-2.8411409e-05
7.4170548e-05
-2.9123023e-05
0.00017021663
-2.5116586e-05
0.00023055101
-1.9089136e-05
-1.130234e-05
-7.6206546e-06
0.00062252321
-3.39317e-05
0.00030879927
0.00060998648
-4.8319586e-05
0.00056366312
0.0005039362
-5.0304546e-05
0.00072795564
0.0003287175
-4.620409e-05
0.00010859543
-4.152836e-05
-2.0146906e-05
0.00039304858
-3.8017245e-05
0.00020276438
0.00038892422
-4.239079e-05
0.00038845479
0.00032366596
-4.0080026e-05
0.00050784025
0.00021139294
-3.3455341e-05
6.8793783e-05
-2.5233285e-05
-2.4267404e-05
0.00024437748
-3.2979953e-05
0.00013751186
0.00023758436
-3.4977696e-05
0.00027618542
0.00019725417
-3.079943e-05
0.00036524269
0.00012941464
-2.3187886e-05
4.3417619e-05
-1.40206e-05
-3.1059018e-05
0.00012050506
-2.0173414e-05
9.718366e-05
0.00011587062
-2.3424141e-05
0.00020834683
9.6885258e-05
-2.0217629e-05
0.00027924544
6.4830228e-05
-1.388344e-05
2.3987287e-05
-5.4875007e-06
-3.5684766e-05
-9.9873079e-06
7.8176976e-05
-1.489193e-05
0.00017624408
-1.3169749e-05
0.00023833781
-8.2325127e-06
-1.5512963e-06
-2.2009376e-05
0.00061842585
0.00030681219
0.00061590543
0.00056776027
0.00051415354
0.00073262734
0.00034146185
0.00012488944
-2.452098e-05
0.00039808105
0.00020507428
0.00039633354
0.00039507826
0.00033294393
0.00051606077
0.00022165889
8.000621e-05
-2.6265399e-05
0.0002571822
0.00014168984
0.00024913658
0.00028379658
0.00020783516
0.00037440948
0.00013871868
5.1950697e-05
-3.4309859e-05
0.0001306869
0.00010039008
0.00012439769
0.00021468091
0.00010392875
0.00028764122
7.047829e-05
2.7922615e-05
-4.0589429e-05
7.9899124e-05
0.00018118128
0.00024501898
)
;

boundaryField
{
    movingWall
    {
        type            calculated;
        value           uniform 0;
    }
    CPLReceiveMD
    {
        type            calculated;
        value           nonuniform 0();
    }
    streamwiseIn
    {
        type            cyclic;
        value           nonuniform 0();
    }
    streamwiseOut
    {
        type            cyclic;
        value           nonuniform 0();
    }
    front
    {
        type            cyclic;
        value           nonuniform 0();
    }
    back
    {
        type            cyclic;
        value           nonuniform 0();
    }
    procBoundary24to6throughback
    {
        type            processorCyclic;
        value           nonuniform List<scalar> 
25
(
2.5588161e-05
1.6807195e-05
7.7521847e-06
1.1580806e-06
-1.6737295e-06
6.832495e-06
7.4626873e-06
4.8565066e-06
2.522554e-06
1.03466e-06
-1.0879721e-05
-2.206681e-06
1.0069122e-06
2.2355719e-06
2.1632538e-06
-2.3304736e-05
-1.0510753e-05
-2.3947086e-06
2.3365764e-06
3.8102689e-06
-3.2142439e-05
-1.9283727e-05
-7.0745943e-06
2.5327805e-06
7.7705575e-06
)
;
    }
    procBoundary24to15
    {
        type            processor;
        value           nonuniform List<scalar> 
25
(
0.00012801438
0.00010186227
6.9083186e-05
3.6701718e-05
7.6647891e-06
9.0539619e-05
7.6641611e-05
5.672135e-05
3.3536258e-05
6.9566191e-06
6.2976167e-05
5.7466454e-05
4.5880366e-05
3.1531585e-05
1.2844652e-05
4.4218045e-05
4.4044806e-05
3.8101862e-05
3.0575156e-05
2.1656521e-05
3.2322393e-05
3.472427e-05
3.2905286e-05
2.9650389e-05
2.8505097e-05
)
;
    }
    procBoundary24to21
    {
        type            processor;
        value           nonuniform List<scalar> 
25
(
-0.00082649255
-0.00080167583
-0.00065476696
-0.00042168155
-0.00013455671
-0.00089910921
-0.00085734726
-0.00069136997
-0.00044338565
-0.00014276154
-0.00095588058
-0.00091048504
-0.00073506537
-0.00047518694
-0.00016247564
-0.00098514489
-0.00094595358
-0.00077105478
-0.00050518121
-0.00018411448
-0.00098992424
-0.00096240095
-0.00079481075
-0.00052838438
-0.00019911894
)
;
    }
    procBoundary24to25
    {
        type            processor;
        value           nonuniform List<scalar> 
25
(
0.00067384105
0.00046986453
0.00034404715
0.00027537666
0.00024604575
0.00071572073
0.00050106534
0.00036288218
0.00028261285
0.00024674426
0.00074853128
0.00052541898
0.00037994747
0.0002927285
0.00025191006
0.00077075146
0.0005404905
0.00039124969
0.00030121446
0.00025815731
0.00078324429
0.00054521972
0.00039511879
0.0003062627
0.00026432524
)
;
    }
    procBoundary24to26throughstreamwiseIn
    {
        type            processorCyclic;
        value           nonuniform List<scalar> 
25
(
0.00031177407
0.00023080103
0.00016968365
0.00013025841
0.00011009158
0.00031900144
0.00023418337
0.00017548328
0.00013859717
0.00011856806
0.0003344043
0.0002429251
0.00018212234
0.00014492856
0.00012532499
0.00035463778
0.00025491106
0.00018993315
0.00015064216
0.00013029113
0.00037354974
0.0002686197
0.00019896726
0.00015565907
0.00013257263
)
;
    }
}


// ************************************************************************* //
