/*--------------------------------*- C++ -*----------------------------------*\
| =========                 |                                                 |
| \\      /  F ield         | OpenFOAM: The Open Source CFD Toolbox           |
|  \\    /   O peration     | Version:  3.0.1                                 |
|   \\  /    A nd           | Web:      www.OpenFOAM.org                      |
|    \\/     M anipulation  |                                                 |
\*---------------------------------------------------------------------------*/
FoamFile
{
    version     2.0;
    format      ascii;
    class       volVectorField;
    location    "0.1";
    object      U;
}
// * * * * * * * * * * * * * * * * * * * * * * * * * * * * * * * * * * * * * //

dimensions      [0 1 -1 0 0 0 0];

internalField   nonuniform List<vector> 
125
(
(-4.0079452e-07 1.6894123e-06 -3.266757e-07)
(3.297027e-07 1.6431627e-06 -2.8684597e-07)
(9.5813752e-07 1.3427101e-06 -2.2145105e-07)
(1.4041149e-06 8.6524585e-07 -1.4217578e-07)
(1.6290631e-06 2.8625595e-07 -5.1971283e-08)
(-3.1483609e-07 1.0819244e-06 -2.2307123e-07)
(1.9761244e-07 1.0557839e-06 -2.0181613e-07)
(6.5517969e-07 8.6394093e-07 -1.6292717e-07)
(9.9790881e-07 5.5686622e-07 -1.1158225e-07)
(1.1540084e-06 1.8960029e-07 -5.1495699e-08)
(-2.4933056e-07 6.8944621e-07 -1.6290369e-07)
(1.1171923e-07 6.6438442e-07 -1.4892254e-07)
(4.5921988e-07 5.3882013e-07 -1.2440164e-07)
(7.2977424e-07 3.4153565e-07 -9.4308012e-08)
(8.4955899e-07 1.0016846e-07 -5.9300988e-08)
(-2.1422263e-07 3.9235778e-07 -1.2839141e-07)
(4.6986359e-08 3.6633169e-07 -1.1678351e-07)
(3.3233092e-07 2.8928326e-07 -9.8690446e-08)
(5.5925714e-07 1.7593113e-07 -8.0568548e-08)
(6.6953313e-07 3.4374451e-08 -6.4291902e-08)
(-2.0085201e-07 1.2844734e-07 -1.0915066e-07)
(8.6423489e-09 1.1659686e-07 -9.6871949e-08)
(2.6875209e-07 9.0114968e-08 -8.1122105e-08)
(4.7474694e-07 5.3100892e-08 -6.879342e-08)
(5.8543191e-07 5.7443156e-09 -6.5097103e-08)
(-4.0268938e-07 1.8369198e-06 -3.1013825e-07)
(3.6125793e-07 1.7662359e-06 -3.0083932e-07)
(1.0213519e-06 1.4315212e-06 -2.6109751e-07)
(1.4968174e-06 9.1900403e-07 -1.9179947e-07)
(1.7353198e-06 2.9610151e-07 -9.5066593e-08)
(-3.1518132e-07 1.1643938e-06 -2.1036279e-07)
(2.1548149e-07 1.1382098e-06 -2.0582415e-07)
(6.9152975e-07 9.3198666e-07 -1.8181567e-07)
(1.0471327e-06 5.9827298e-07 -1.4051997e-07)
(1.219871e-06 1.8874891e-07 -9.0173387e-08)
(-2.4948587e-07 7.2622186e-07 -1.6079883e-07)
(1.2885074e-07 7.0866968e-07 -1.5207672e-07)
(4.8141507e-07 5.7978217e-07 -1.3488746e-07)
(7.5357962e-07 3.6884847e-07 -1.1080246e-07)
(8.8475093e-07 1.0574825e-07 -8.6399667e-08)
(-2.1325459e-07 4.0777553e-07 -1.3446959e-07)
(6.9041797e-08 3.8994067e-07 -1.2039462e-07)
(3.5170854e-07 3.1633387e-07 -1.0299937e-07)
(5.7309877e-07 1.9908658e-07 -8.5522057e-08)
(6.8370663e-07 4.814707e-08 -7.2000675e-08)
(-1.9616648e-07 1.3280017e-07 -1.2216078e-07)
(3.73994e-08 1.2484229e-07 -1.0263955e-07)
(2.9048815e-07 1.0117487e-07 -8.1806208e-08)
(4.852716e-07 6.3709582e-08 -6.5907446e-08)
(5.8856971e-07 1.3490691e-08 -5.5593669e-08)
(-4.1977955e-07 1.950892e-06 -2.4227872e-07)
(3.7874344e-07 1.8741623e-06 -2.4785114e-07)
(1.0671774e-06 1.5223433e-06 -2.2705127e-07)
(1.5701458e-06 9.8339093e-07 -1.786168e-07)
(1.8191607e-06 3.2604007e-07 -1.0935382e-07)
(-3.2545083e-07 1.2312638e-06 -1.7730089e-07)
(2.2615956e-07 1.2045465e-06 -1.8002681e-07)
(7.2048387e-07 9.9015099e-07 -1.6450641e-07)
(1.0895511e-06 6.3786324e-07 -1.325292e-07)
(1.2737987e-06 1.9826722e-07 -9.1273236e-08)
(-2.5615588e-07 7.6533941e-07 -1.3728974e-07)
(1.376306e-07 7.4981395e-07 -1.3749023e-07)
(5.0049414e-07 6.1763643e-07 -1.2458364e-07)
(7.7826203e-07 3.9653356e-07 -1.0178233e-07)
(9.1883737e-07 1.1834117e-07 -7.6379005e-08)
(-2.184849e-07 4.3096504e-07 -1.0676539e-07)
(7.8456578e-08 4.1574301e-07 -1.0558034e-07)
(3.6720348e-07 3.4234399e-07 -9.3150976e-08)
(5.9025584e-07 2.2080972e-07 -7.5375209e-08)
(7.0474437e-07 6.5166661e-08 -5.6759653e-08)
(-2.0037234e-07 1.4072271e-07 -8.8927536e-08)
(4.8996923e-08 1.3432196e-07 -8.5576829e-08)
(3.0548419e-07 1.1128248e-07 -7.3211511e-08)
(5.0095947e-07 7.2694206e-08 -5.8038447e-08)
(6.0307609e-07 2.2133381e-08 -4.0255812e-08)
(-4.5280535e-07 2.0094358e-06 -1.4119448e-07)
(3.7648539e-07 1.9448115e-06 -1.6691528e-07)
(1.0905863e-06 1.5936652e-06 -1.6392315e-07)
(1.6145148e-06 1.0423289e-06 -1.4086829e-07)
(1.8733728e-06 3.6586669e-07 -1.085909e-07)
(-3.4381632e-07 1.2693828e-06 -1.2434911e-07)
(2.2827597e-07 1.2485708e-06 -1.3319975e-07)
(7.3902736e-07 1.0344543e-06 -1.248132e-07)
(1.1203659e-06 6.7510745e-07 -1.0348948e-07)
(1.3104089e-06 2.2172372e-07 -7.5442567e-08)
(-2.6774843e-07 7.9675737e-07 -1.0189705e-07)
(1.4155684e-07 7.8311614e-07 -1.0622345e-07)
(5.1712297e-07 6.511376e-07 -9.524584e-08)
(8.0178426e-07 4.2600246e-07 -7.4858186e-08)
(9.4561381e-07 1.4026183e-07 -5.0750866e-08)
(-2.2712565e-07 4.5611542e-07 -7.0630684e-08)
(8.2656211e-08 4.4183257e-07 -7.6192899e-08)
(3.8191367e-07 3.6768763e-07 -6.6486547e-08)
(6.0949009e-07 2.4281592e-07 -4.9557101e-08)
(7.2557425e-07 8.4260219e-08 -2.8839881e-08)
(-2.0746957e-07 1.506114e-07 -4.7998295e-08)
(5.3115425e-08 1.4481947e-07 -5.5018632e-08)
(3.1802654e-07 1.210911e-07 -4.7857919e-08)
(5.182273e-07 8.1027555e-08 -3.4152107e-08)
(6.2061868e-07 2.9980386e-08 -1.6067115e-08)
(-4.9443427e-07 2.0103022e-06 -1.0409237e-08)
(3.5601476e-07 1.9727795e-06 -5.1840823e-08)
(1.0932244e-06 1.6361385e-06 -7.6465574e-08)
(1.625478e-06 1.0872674e-06 -8.6875794e-08)
(1.8948297e-06 4.0499024e-07 -9.2084608e-08)
(-3.6642064e-07 1.2705612e-06 -2.6505145e-08)
(2.2569548e-07 1.2652383e-06 -4.3653865e-08)
(7.5019414e-07 1.0588283e-06 -5.2853602e-08)
(1.1389217e-06 7.0387334e-07 -5.4954545e-08)
(1.3265966e-06 2.5610725e-07 -5.5645244e-08)
(-2.8153897e-07 8.1905784e-07 -3.1531955e-08)
(1.4428181e-07 8.068208e-07 -3.7649189e-08)
(5.3185941e-07 6.7596308e-07 -3.7238942e-08)
(8.22757e-07 4.5046594e-07 -3.1977211e-08)
(9.619089e-07 1.6494386e-07 -2.6368735e-08)
(-2.3746051e-07 4.8485195e-07 -2.376818e-08)
(8.2600715e-08 4.6693415e-07 -2.6126169e-08)
(3.9383928e-07 3.8971994e-07 -2.247699e-08)
(6.279025e-07 2.6150721e-07 -1.4433259e-08)
(7.4237937e-07 9.9846344e-08 -3.6933628e-09)
(-2.1645235e-07 1.633374e-07 -1.4575944e-08)
(4.9137298e-08 1.5547717e-07 -1.7321305e-08)
(3.2635072e-07 1.2989449e-07 -1.3757924e-08)
(5.3275028e-07 8.8086814e-08 -5.5277108e-09)
(6.3668007e-07 3.4898941e-08 7.774065e-09)
)
;

boundaryField
{
    movingWall
    {
        type            fixedValue;
        value           uniform (0 0 0);
    }
    CPLReceiveMD
    {
        type            fixedValue;
        value           nonuniform 0();
    }
    streamwiseIn
    {
        type            cyclic;
    }
    streamwiseOut
    {
        type            cyclic;
    }
    front
    {
        type            cyclic;
    }
    back
    {
        type            cyclic;
    }
    procBoundary24to6throughback
    {
        type            processorCyclic;
        value           nonuniform List<vector> 
25
(
(-5.1862229e-07 1.9924309e-06 1.1599642e-07)
(-3.7706281e-07 1.2482601e-06 9.5625763e-08)
(-2.8829676e-07 7.9949433e-07 6.9191686e-08)
(-2.4207205e-07 4.7306815e-07 3.6754907e-08)
(-2.222595e-07 1.5979764e-07 1.5994674e-08)
(3.1042905e-07 1.9709464e-06 8.311021e-08)
(2.0192752e-07 1.2627624e-06 7.3461717e-08)
(1.3584985e-07 8.0064384e-07 5.924856e-08)
(8.39474e-08 4.6215636e-07 4.0769808e-08)
(5.3933445e-08 1.5361779e-07 2.7896872e-08)
(1.0555513e-06 1.6421807e-06 3.8407679e-08)
(7.2772668e-07 1.0736809e-06 4.4751538e-08)
(5.2279495e-07 6.8151421e-07 4.3396116e-08)
(3.9360658e-07 3.911653e-07 3.6159377e-08)
(3.2982013e-07 1.2980454e-07 2.8733782e-08)
(1.5988958e-06 1.0977347e-06 -3.5744799e-09)
(1.1175742e-06 7.3000603e-07 1.4987727e-08)
(8.1265447e-07 4.6652374e-07 2.5315542e-08)
(6.2827372e-07 2.6926403e-07 2.7311279e-08)
(5.3975929e-07 8.9929475e-08 2.3768405e-08)
(1.8974658e-06 4.2008702e-07 -3.691172e-08)
(1.3273808e-06 2.8743959e-07 -1.2739411e-08)
(9.5936522e-07 1.9221371e-07 6.7313163e-09)
(7.3488071e-07 1.184049e-07 1.6328724e-08)
(6.2505102e-07 4.1446866e-08 1.7175761e-08)
)
;
    }
    procBoundary24to15
    {
        type            processor;
        value           nonuniform List<vector> 
25
(
(-4.1548089e-07 1.5539024e-06 -2.7926127e-07)
(2.5603329e-07 1.5205418e-06 -2.2435337e-07)
(8.7668175e-07 1.2479008e-06 -1.531295e-07)
(1.3273376e-06 8.1111861e-07 -7.4713688e-08)
(1.5575119e-06 2.8554742e-07 4.5056259e-09)
(-3.1116354e-07 1.0006218e-06 -1.976589e-07)
(1.5533743e-07 1.0002864e-06 -1.655219e-07)
(6.0129588e-07 8.3493725e-07 -1.2075327e-07)
(9.3570121e-07 5.5040521e-07 -6.7330752e-08)
(1.1098453e-06 1.9607861e-07 -6.3088673e-09)
(-2.5027189e-07 6.3154204e-07 -1.4538987e-07)
(9.0348697e-08 6.2363707e-07 -1.2680262e-07)
(4.2680054e-07 5.1554544e-07 -9.7591879e-08)
(6.8847897e-07 3.3783476e-07 -6.0985827e-08)
(8.1389964e-07 1.1854445e-07 -1.6477911e-08)
(-2.2330915e-07 3.5405016e-07 -1.0776643e-07)
(3.9340831e-08 3.3791453e-07 -1.0216989e-07)
(3.1549358e-07 2.7307466e-07 -8.5469162e-08)
(5.3870022e-07 1.7358908e-07 -6.0789044e-08)
(6.3151149e-07 5.3959271e-08 -3.0229263e-08)
(-2.1710217e-07 1.1359136e-07 -8.4121217e-08)
(9.3708454e-09 1.0495983e-07 -8.8475446e-08)
(2.6240963e-07 8.3631143e-08 -8.0189797e-08)
(4.692466e-07 5.1954558e-08 -6.1651952e-08)
(5.4275431e-07 1.4311944e-08 -3.8959373e-08)
)
;
    }
    procBoundary24to21
    {
        type            processor;
        value           nonuniform List<vector> 
25
(
(-5.149305e-07 2.6321303e-06 -5.0608864e-07)
(5.443146e-07 2.4791257e-06 -4.4751024e-07)
(1.4330965e-06 1.9765493e-06 -3.4654758e-07)
(2.054363e-06 1.2489989e-06 -2.1946768e-07)
(2.3597842e-06 3.8817576e-07 -6.2049786e-08)
(-5.0149925e-07 2.8755456e-06 -4.7184253e-07)
(6.2088005e-07 2.6808355e-06 -4.3682374e-07)
(1.5387616e-06 2.1198868e-06 -3.6144882e-07)
(2.1825524e-06 1.3369724e-06 -2.5866506e-07)
(2.5153725e-06 4.2611932e-07 -1.2995751e-07)
(-5.2205179e-07 3.0706574e-06 -3.4981688e-07)
(6.5470831e-07 2.8614139e-06 -3.5860239e-07)
(1.6112552e-06 2.2661092e-06 -3.2665041e-07)
(2.2858543e-06 1.4465103e-06 -2.5585404e-07)
(2.6534881e-06 4.9033657e-07 -1.6103842e-07)
(-5.6959674e-07 3.1797608e-06 -1.8375929e-07)
(6.4404652e-07 2.9821999e-06 -2.3181704e-07)
(1.64151e-06 2.3842703e-06 -2.3860846e-07)
(2.3481644e-06 1.5475361e-06 -2.0736591e-07)
(2.7444165e-06 5.5747981e-07 -1.5439274e-07)
(-6.3901236e-07 3.2091521e-06 -9.5002499e-09)
(5.9985914e-07 3.0400651e-06 -6.9788803e-08)
(1.6357063e-06 2.4627167e-06 -1.0136906e-07)
(2.37007e-06 1.6203029e-06 -1.1036038e-07)
(2.77746e-06 6.0586431e-07 -1.0986557e-07)
)
;
    }
    procBoundary24to25
    {
        type            processor;
        value           nonuniform List<vector> 
25
(
(1.6196874e-06 -3.4052998e-07 3.5632132e-08)
(1.124921e-06 -2.2263792e-07 -1.556582e-09)
(8.077879e-07 -1.4293959e-07 -2.3456723e-08)
(6.320479e-07 -8.8049967e-08 -2.837341e-08)
(5.5804903e-07 -3.0833223e-08 -2.2978026e-08)
(1.7217017e-06 -3.7649744e-07 -1.7018782e-09)
(1.1951205e-06 -2.522959e-07 -2.0729626e-08)
(8.6045077e-07 -1.6731593e-07 -4.1524075e-08)
(6.6651447e-07 -9.694781e-08 -5.0310817e-08)
(5.7812996e-07 -3.1256735e-08 -4.8263274e-08)
(1.8104644e-06 -3.9629845e-07 -4.0563829e-08)
(1.2572786e-06 -2.6246012e-07 -4.1991357e-08)
(9.0595101e-07 -1.7252078e-07 -4.0919453e-08)
(6.9804125e-07 -9.4801013e-08 -3.3507589e-08)
(5.9910246e-07 -2.8798244e-08 -2.598948e-08)
(1.8730645e-06 -3.9167881e-07 -6.5199287e-08)
(1.3013435e-06 -2.5265152e-07 -5.0691565e-08)
(9.3786336e-07 -1.5883216e-07 -3.1786658e-08)
(7.191375e-07 -8.2024236e-08 -1.1922102e-08)
(6.116591e-07 -2.3746979e-08 -5.4812535e-10)
(1.9057577e-06 -3.6359597e-07 -6.2782778e-08)
(1.3219603e-06 -2.2904749e-07 -3.7982629e-08)
(9.5265538e-07 -1.3375132e-07 -1.8225801e-08)
(7.2652751e-07 -6.3562676e-08 -5.1268005e-09)
(6.1336748e-07 -1.7427238e-08 -1.0953661e-09)
)
;
    }
    procBoundary24to26throughstreamwiseIn
    {
        type            processorCyclic;
        value           nonuniform List<vector> 
25
(
(-1.0945327e-06 1.4430683e-06 -2.9963747e-07)
(-7.7925496e-07 9.043199e-07 -1.9779834e-07)
(-5.6465621e-07 5.6377096e-07 -1.4970856e-07)
(-4.2623934e-07 3.1790312e-07 -1.2683807e-07)
(-3.5770414e-07 1.0327983e-07 -1.1780763e-07)
(-1.1431698e-06 1.579918e-06 -2.8185429e-07)
(-8.0917918e-07 9.8500632e-07 -1.9520941e-07)
(-5.9105981e-07 6.0674294e-07 -1.4525141e-07)
(-4.5444061e-07 3.3666994e-07 -1.1613235e-07)
(-3.8660105e-07 1.0780759e-07 -1.0311922e-07)
(-1.2040322e-06 1.6775613e-06 -1.9773518e-07)
(-8.489589e-07 1.0409228e-06 -1.5139181e-07)
(-6.2044578e-07 6.4284802e-07 -1.1922766e-07)
(-4.7798189e-07 3.6000913e-07 -9.1709278e-08)
(-4.0712072e-07 1.1626411e-07 -7.4273742e-08)
(-1.2611114e-06 1.719031e-06 -9.2260562e-08)
(-8.8832073e-07 1.0635138e-06 -9.2229941e-08)
(-6.4861297e-07 6.6642547e-07 -8.0840359e-08)
(-4.9735224e-07 3.816052e-07 -5.7217284e-08)
(-4.2103425e-07 1.2522023e-07 -3.8938628e-08)
(-1.3044787e-06 1.7001878e-06 1.3976118e-08)
(-9.2461695e-07 1.052343e-06 -1.0407382e-08)
(-6.7577931e-07 6.7786067e-07 -1.7100865e-08)
(-5.1271798e-07 4.0190144e-07 -1.1179769e-08)
(-4.2767928e-07 1.345284e-07 -2.5313715e-09)
)
;
    }
}


// ************************************************************************* //
