/*--------------------------------*- C++ -*----------------------------------*\
| =========                 |                                                 |
| \\      /  F ield         | OpenFOAM: The Open Source CFD Toolbox           |
|  \\    /   O peration     | Version:  3.0.1                                 |
|   \\  /    A nd           | Web:      www.OpenFOAM.org                      |
|    \\/     M anipulation  |                                                 |
\*---------------------------------------------------------------------------*/
FoamFile
{
    version     2.0;
    format      ascii;
    class       surfaceScalarField;
    location    "0.2";
    object      phi;
}
// * * * * * * * * * * * * * * * * * * * * * * * * * * * * * * * * * * * * * //

dimensions      [0 3 -1 0 0 0 0];

internalField   nonuniform List<scalar> 
300
(
0.49217333
0.022689109
-0.0033032341
0.58544233
-0.0101678
-0.036643057
0.53187748
-0.017199923
0.051475783
0.50990554
-0.0056111751
-0.019188501
-0.047062374
-0.1350066
0.052447266
0.022566216
-0.010078982
0.046605147
0.0038264315
-0.0021636392
0.021786661
-0.0096244016
0.011915775
0.019445649
-0.010529365
-0.0072244652
-0.021540561
-0.031807372
0.034184668
0.018404593
-0.0073145555
0.032224918
0.0063801674
0.0010719438
0.020608688
-0.0040929121
0.0058551395
0.015491667
-0.0079760942
-0.00074081129
-0.012122165
-0.0069655112
0.022248641
0.013702353
-0.0048511539
0.022027698
0.0058983253
0.00075467877
0.016676841
-0.0012552572
0.0033308656
0.012333811
-0.0052419301
0.0021254787
-0.0078387452
0.0014157605
0.014529076
-0.0030985815
0.015228964
0.00026898387
0.012750118
0.0022028872
0.0097889661
0.0026215499
0.003239528
0.47059927
0.016943382
-0.03527947
0.31828902
0.039438702
0.076163617
0.32712343
-0.05336887
0.095979887
0.37443406
-0.0078114875
-0.058740436
0.038006371
-0.11715516
0.057843798
0.024849838
-0.011391744
0.062714843
0.0091516728
0.023224617
0.0097446466
-0.017914974
0.029346204
0.0046870097
-0.0049098255
-0.0051272364
0.0072886244
-0.022061291
0.042406188
0.020961712
-0.0053483454
0.036610325
0.0061399789
0.0098670545
0.016099297
-0.0069140966
0.015326649
0.012409884
-0.0051301242
0.00316259
-0.0024202431
-0.00299676
0.027834099
0.015508858
-0.0033209772
0.024587363
0.0054218241
0.004666801
0.01559713
-0.0026640904
0.0080346665
0.012035838
-0.0047202553
0.005287681
-0.0054976583
0.0037385966
0.017883062
-0.0023854372
0.017162999
0.0019007361
0.01317499
0.0043554578
0.010449088
0.0043796823
0.0049012151
0.67126577
0.043512051
0.05993718
0.64928768
-0.0095229227
0.10767201
0.35486522
-0.031471612
0.42186132
0.17745885
0.048997719
0.069626065
0.040821633
-0.36133345
0.094397094
0.032111183
0.025764564
0.060879443
-0.0046191157
0.051840692
-0.016892702
-0.024648729
0.1002481
-0.0069063798
0.0084156747
0.025441003
0.022932828
-0.05872571
0.057941453
0.023280568
0.0088639742
0.041597855
-0.00070571826
0.022264605
0.0085595786
-0.014534255
0.038220525
0.0072696629
-0.0024839801
0.015331931
0.0049111607
-0.0087963083
0.035818535
0.016491227
0.0017886678
0.027912898
0.0025556461
0.0092824305
0.013804714
-0.0071234443
0.014729694
0.012047714
-0.0051933975
0.0097514066
-0.0040011679
0.0056119262
0.022147268
-0.00050237473
0.019611941
0.0036755203
0.013231538
0.0064690008
0.011023646
0.006342771
0.0066958977
0.41886326
0.01021951
0.051771072
0.55008962
-0.073976451
0.050426826
1.6061427
-0.46336334
-0.17085639
1.6730225
-0.0059484096
0.0086160244
0.4462665
0.23616555
0.12391577
0.013224724
0.021170538
0.10840177
-0.039307625
0.032697424
-0.10876578
-0.15806032
0.012048793
-0.1041343
-0.0060577266
0.020950128
0.13611641
0.041026469
0.071653447
0.01485931
0.0069727761
0.057983328
-0.017695645
0.01432097
-0.019731079
-0.050632496
0.0085093355
-0.018366913
-0.008200354
0.016203408
0.027439268
0.027698228
0.043143828
0.013423825
0.0011402275
0.033417042
-0.0042065164
0.0055309517
0.0090559693
-0.018003598
0.0065061132
0.0083281944
-0.0086038473
0.010904113
-0.0019040563
0.016160948
0.026122455
-0.00063139717
0.022342185
0.0023969027
0.013080308
0.0042132077
0.011396328
0.0066996887
0.0094797789
0.47688138
-0.023615464
0.50255208
-0.087448446
-0.057051735
-0.18189085
-0.11512985
0.0091534079
0.15502884
0.13005231
-0.0013855964
0.087969521
-0.052591099
-0.088045969
-0.09361928
-0.069748793
-0.010546253
0.057729336
0.077915085
0.0089816466
0.051661846
-0.022783787
-0.0096335155
-0.041844544
-0.0041890441
-0.013730163
0.0066548468
0.047282249
0.011601971
0.034290111
-0.0069413914
0.01195704
-0.018435303
0.013531407
-0.012846106
-0.0099606455
0.029011281
0.024148738
0.015523123
0.014302861
)
;

boundaryField
{
    movingWall
    {
        type            calculated;
        value           nonuniform 0();
    }
    CPLReceiveMD
    {
        type            calculated;
        value           uniform 0;
    }
    streamwiseIn
    {
        type            cyclic;
        value           nonuniform 0();
    }
    streamwiseOut
    {
        type            cyclic;
        value           nonuniform 0();
    }
    front
    {
        type            cyclic;
        value           nonuniform 0();
    }
    back
    {
        type            cyclic;
        value           nonuniform 0();
    }
    procBoundary18to0throughback
    {
        type            processorCyclic;
        value           nonuniform List<scalar> 
25
(
0.015728315
0.0070664353
0.00077919882
-0.0011221337
-0.0013064813
0.11230942
0.039956448
0.010934085
0.0026532001
0.00073774543
0.57068288
0.099846086
0.018020119
0.0052423309
0.0023074323
0.057540983
0.022601927
0.014024165
0.0084390865
0.0049565502
-0.50804914
-0.050677624
0.012709658
0.013446789
0.0082089195
)
;
    }
    procBoundary18to9
    {
        type            processor;
        value           nonuniform List<scalar> 
25
(
-0.061087702
-0.046435907
0.019272443
0.046706447
0.24787932
-0.0089854182
-0.0059900059
0.0052936041
0.014444134
0.042472545
0.0014831001
-0.0017005092
0.00018520292
0.0032613403
0.010267642
0.0029580229
7.5398593e-06
-0.00077661503
-0.00049689735
6.8608035e-05
0.0023013665
0.00026764891
-0.0008571354
-0.0013415422
-0.0018930593
)
;
    }
    procBoundary18to19
    {
        type            processor;
        value           nonuniform List<scalar> 
25
(
0.44402599
-0.016669496
0.0028424934
0.0066318753
0.0063068908
0.31861164
0.025737958
0.018197829
0.012797607
0.0090801017
0.38093833
0.047732325
0.031176152
0.019009676
0.011807973
0.62935202
0.10640298
0.053875507
0.02705927
0.014962831
0.47417084
0.1194852
0.06179
0.032698221
0.018127784
)
;
    }
    procBoundary18to20throughstreamwiseIn
    {
        type            processorCyclic;
        value           nonuniform List<scalar> 
25
(
-0.4503934
-0.033238002
-0.024145276
-0.015549957
-0.0096561782
-0.45541659
-0.064370045
-0.040420021
-0.023927105
-0.014006212
-0.80994777
-0.1200808
-0.063338858
-0.034173887
-0.019092283
-0.42097252
-0.12239044
-0.071480734
-0.04105046
-0.023372802
-0.41734504
-0.13814173
-0.082099469
-0.047561144
-0.02707129
)
;
    }
    procBoundary18to21
    {
        type            processor;
        value           nonuniform List<scalar> 
25
(
0.0097664707
0.0047619266
1.7175978e-05
-0.0034138518
-0.0056438534
0.010958978
0.0045172743
-0.0008260678
-0.0037320717
-0.0057950311
0.011663644
0.0032987476
-0.0029115075
-0.0049675879
-0.0066666232
0.010872975
0.00083760554
-0.0064949016
-0.0073173112
-0.0082783938
0.010461473
-0.00054929504
-0.0080671531
-0.010009293
-0.012453123
)
;
    }
}


// ************************************************************************* //
