/*--------------------------------*- C++ -*----------------------------------*\
| =========                 |                                                 |
| \\      /  F ield         | OpenFOAM: The Open Source CFD Toolbox           |
|  \\    /   O peration     | Version:  3.0.1                                 |
|   \\  /    A nd           | Web:      www.OpenFOAM.org                      |
|    \\/     M anipulation  |                                                 |
\*---------------------------------------------------------------------------*/
FoamFile
{
    version     2.0;
    format      ascii;
    class       volVectorField;
    location    "0.2";
    object      U;
}
// * * * * * * * * * * * * * * * * * * * * * * * * * * * * * * * * * * * * * //

dimensions      [0 1 -1 0 0 0 0];

internalField   nonuniform List<vector> 
125
(
(0.0018157264 3.0113967e-05 5.885197e-05)
(0.00055498162 -1.575171e-05 1.4008157e-05)
(0.0023641946 -2.4131937e-05 4.3663844e-05)
(0.00042435168 -1.0790756e-05 -9.5535215e-05)
(0.0018710464 -7.1447897e-05 -0.00060898842)
(0.00011113597 5.843293e-05 -2.2704166e-06)
(0.00012386027 -1.0002811e-05 4.7441725e-06)
(8.5760287e-05 -3.6156229e-05 6.7860787e-06)
(5.8611628e-05 -2.394721e-05 -3.4102294e-05)
(5.4250411e-06 -9.6577857e-05 -0.00010997208)
(7.4368535e-05 5.1324303e-05 -1.1346251e-05)
(8.3401766e-05 1.3774723e-05 3.0617826e-06)
(6.6160206e-05 -1.6789845e-05 5.5474908e-06)
(4.5406157e-05 -2.2831242e-05 -6.4464346e-06)
(2.0015982e-05 -3.9043829e-05 -2.3738703e-05)
(4.8036402e-05 4.0116699e-05 -9.9179323e-06)
(5.5631643e-05 1.5406025e-05 8.3905173e-07)
(4.8459783e-05 -5.9178487e-06 4.9496356e-06)
(3.6258179e-05 -1.5733679e-05 2.9846773e-06)
(2.2492414e-05 -2.3156355e-05 1.3698994e-06)
(3.0847618e-05 2.9301823e-05 -6.8158545e-06)
(3.7367184e-05 1.3332812e-05 -4.0819891e-08)
(3.5020298e-05 -1.0917052e-06 3.778084e-06)
(2.8167622e-05 -9.9991908e-06 4.8920287e-06)
(2.0056474e-05 -1.5937161e-05 6.3600632e-06)
(0.00188441 2.1368554e-05 -5.3800259e-05)
(0.00068353457 4.607378e-05 2.7778276e-05)
(0.00050906543 -7.7632684e-05 7.038747e-05)
(0.0013739727 -1.4842836e-05 -9.3448099e-05)
(0.00063170206 5.4635078e-05 -0.00020101998)
(0.00015590372 5.3234108e-05 -2.9511014e-05)
(0.00015171808 5.9089505e-05 2.2694046e-05)
(8.2497584e-05 -9.8031253e-05 4.381713e-05)
(4.5725119e-06 -2.0028292e-05 -1.6907828e-05)
(3.3255971e-05 6.0454786e-05 -6.5655861e-05)
(0.00010546127 5.8072845e-05 -1.6472886e-05)
(9.925471e-05 2.0984905e-05 1.3275628e-05)
(6.4182958e-05 -2.7580683e-05 2.5424968e-05)
(3.0109325e-05 -1.1234907e-05 2.6897601e-06)
(3.4417334e-05 2.4200638e-06 -1.2566832e-05)
(6.5818685e-05 4.5570219e-05 -1.0375838e-05)
(6.586596e-05 1.4786453e-05 6.7084972e-06)
(5.0164589e-05 -9.6821899e-06 1.4113116e-05)
(3.3892236e-05 -1.1442017e-05 9.1334805e-06)
(3.0453833e-05 -1.032529e-05 6.3153289e-06)
(4.0538317e-05 3.3028926e-05 -6.9046697e-06)
(4.400223e-05 1.2465968e-05 2.6861339e-06)
(3.7954457e-05 -3.4756738e-06 8.1688664e-06)
(2.9465979e-05 -1.0017268e-05 8.701914e-06)
(2.4342855e-05 -1.4177212e-05 1.0117756e-05)
(0.002148867 5.4444552e-05 3.0282054e-05)
(0.0012063925 -2.0877821e-05 0.00025706583)
(0.0018775479 -5.0778549e-05 0.0007914767)
(3.1540131e-05 6.584402e-05 1.6599988e-05)
(0.00071624399 6.4150103e-05 -0.00072860183)
(0.00026856379 9.5801738e-05 2.1766862e-05)
(0.00019746469 -2.4547568e-05 0.00010441969)
(4.6121047e-05 -8.1196668e-05 0.00019252404)
(-5.0893305e-05 7.2284696e-05 2.6007552e-05)
(5.039551e-05 9.210806e-05 -0.00012941168)
(0.00015349732 7.0459468e-05 6.9048568e-06)
(0.00012529972 -2.2108562e-06 4.3697597e-05)
(5.5574339e-05 -4.6493905e-05 7.3379098e-05)
(7.4143438e-06 3.2101172e-06 2.2962021e-05)
(4.4026376e-05 3.2927434e-05 -1.8231868e-05)
(8.8847983e-05 4.9684909e-05 -6.80772e-07)
(8.0120596e-05 4.8165276e-06 1.8623333e-05)
(5.0884765e-05 -2.3173954e-05 2.9935189e-05)
(2.8460392e-05 -9.7215238e-06 1.8747314e-05)
(3.6368634e-05 -4.717669e-07 1.1235189e-05)
(5.2362783e-05 3.5124526e-05 -3.2655271e-06)
(5.2440721e-05 7.4931717e-06 7.1117105e-06)
(4.1036078e-05 -1.0622251e-05 1.3618751e-05)
(3.0116511e-05 -1.2698142e-05 1.3385862e-05)
(2.8405018e-05 -1.3902552e-05 1.4410008e-05)
(0.0011561111 1.2835252e-05 0.00015018947)
(0.0013086883 -0.00010675375 0.00020322546)
(0.00026625708 -0.00067724209 0.00033622814)
(0.0091951557 -5.4235823e-06 0.00011425379)
(0.00056304798 0.00065447763 -0.00015752436)
(0.00030868878 2.9838849e-05 6.5167619e-05)
(0.00032239154 -0.00015446184 0.00011011785)
(4.1164924e-06 -0.00081678235 0.0001472205)
(-0.00031270569 -1.3640395e-05 6.0083299e-05)
(1.7992728e-05 0.00077148052 -1.8911864e-05)
(0.00018088439 3.5625146e-05 2.3005054e-05)
(0.00016572892 -6.4811562e-05 4.823728e-05)
(4.3447408e-05 -0.00019016969 6.1325094e-05)
(-6.1499907e-05 -1.8495159e-05 3.9743718e-05)
(4.1893336e-05 0.00014306723 2.5120787e-05)
(0.00010667688 3.5399822e-05 5.1902541e-06)
(9.6481922e-05 -2.1799446e-05 1.9613929e-05)
(5.028857e-05 -6.9442553e-05 2.7672164e-05)
(1.5192235e-05 -2.101818e-05 2.5854772e-05)
(4.1008721e-05 2.2316579e-05 2.7739221e-05)
(6.2795528e-05 3.0352844e-05 -8.887794e-07)
(6.0886509e-05 -3.6098683e-06 7.7312288e-06)
(4.4228609e-05 -2.6669465e-05 1.3422006e-05)
(3.0257236e-05 -1.9899871e-05 1.6308205e-05)
(3.2740507e-05 -1.4355683e-05 2.0425798e-05)
(0.0011835887 -3.0664563e-05 7.7396344e-05)
(0.0012457081 -0.00011407196 0.00018283818)
(0.00070116303 -0.00023994994 0.00035115912)
(-0.00051938344 1.1609276e-05 7.8643763e-05)
(0.00032419094 0.00020283232 -0.00017467535)
(0.0003380986 -3.1471475e-05 3.4188399e-05)
(0.00027943814 -0.00017962321 8.4612953e-05)
(-4.2953308e-06 -0.000356264 0.00010982536)
(-0.00021702449 -2.2892889e-06 5.4453417e-05)
(6.2130822e-05 0.0002748235 2.0407477e-05)
(0.00020238076 1.0482029e-05 9.6375625e-06)
(0.00016361978 -9.2714883e-05 3.042907e-05)
(4.708065e-05 -0.00016604281 2.9418914e-05)
(-2.8789976e-05 -3.1018522e-05 3.81122e-05)
(6.77538e-05 7.9578123e-05 5.5511919e-05)
(0.00012010183 2.5791064e-05 1.4230629e-07)
(0.00010260251 -3.5689544e-05 1.0084631e-05)
(5.7125607e-05 -7.1077093e-05 1.4305337e-05)
(2.8527445e-05 -3.3157042e-05 2.427616e-05)
(5.5377121e-05 -5.1667812e-06 3.7990197e-05)
(7.1399298e-05 2.7570146e-05 -2.2602864e-06)
(6.6751507e-05 -9.1963636e-06 3.9006669e-06)
(4.9613054e-05 -3.1341406e-05 8.12027e-06)
(3.7120303e-05 -2.8545689e-05 1.4631269e-05)
(4.0424523e-05 -2.8411771e-05 2.2406389e-05)
)
;

boundaryField
{
    movingWall
    {
        type            fixedValue;
        value           nonuniform 0();
    }
    CPLReceiveMD
    {
        type            fixedValue;
        value           nonuniform List<vector> 
25
(
(2.9511974 0 0)
(3.1312564 0 0)
(2.8435383 0 0)
(0.28806426 0 0)
(0.76804316 0 0)
(0.59308944 0 0)
(0.14240746 0 0)
(0.48715033 0 0)
(0.26938893 0 0)
(0.54154475 0 0)
(3.5769074 0 0)
(0.55917681 0 0)
(2.4092889 0 0)
(0.30515325 0 0)
(1.1196699 0 0)
(0.47994969 0 0)
(0.55362532 0 0)
(0.26084239 0 0)
(0.61335438 0 0)
(0.019878978 0 0)
(2.977116 0 0)
(0.033935823 0 0)
(0.90848263 0 0)
(1.2018285 0 0)
(0.34056589 0 0)
)
;
    }
    streamwiseIn
    {
        type            cyclic;
    }
    streamwiseOut
    {
        type            cyclic;
    }
    front
    {
        type            cyclic;
    }
    back
    {
        type            cyclic;
    }
    procBoundary18to0throughback
    {
        type            processorCyclic;
        value           nonuniform List<vector> 
25
(
(0.0013387359 -3.0387451e-05 3.8420544e-05)
(0.00041866514 -3.7941914e-05 1.3861553e-06)
(0.00023242519 1.579007e-06 -6.249228e-06)
(0.00013252844 2.3501962e-05 -5.600413e-06)
(7.7663734e-05 2.7799823e-05 -3.8863043e-06)
(0.0015401124 -0.00020499289 2.658929e-05)
(0.00039800164 -0.00030688544 9.751418e-06)
(0.00018551031 -0.00013933994 -1.0571271e-06)
(0.00011064496 -4.8327865e-05 -2.27027e-06)
(7.1267067e-05 -1.2077673e-05 -1.2623295e-06)
(0.00013412152 -0.00091845642 -0.00011945894)
(-2.6054902e-05 -0.0011384077 -3.4572678e-05)
(5.113052e-05 -0.00028569005 -9.9393739e-06)
(6.4480098e-05 -9.0741232e-05 -8.8713664e-07)
(5.4959212e-05 -3.6031821e-05 1.1544103e-06)
(0.016311955 -2.9671577e-05 0.00011748502)
(-0.00040277197 -5.4243293e-05 2.367241e-05)
(-3.5407685e-05 -4.8672504e-05 1.9476329e-05)
(3.8877093e-05 -4.4499111e-05 1.2778655e-05)
(4.4543354e-05 -3.5481985e-05 7.8569231e-06)
(0.00052664234 0.00084935126 0.00013645283)
(0.0001077804 0.0010014532 9.2592651e-05)
(0.00010071197 0.0001606493 5.5369551e-05)
(7.3305342e-05 -1.0788973e-05 3.0297963e-05)
(4.9043637e-05 -3.96118e-05 1.5846517e-05)
)
;
    }
    procBoundary18to9
    {
        type            processor;
        value           nonuniform List<vector> 
25
(
(0.0014787396 8.2503594e-05 0.00024039424)
(0.00051919329 5.5378806e-05 -7.2748091e-06)
(0.00068914384 -4.0700804e-05 -0.0001642767)
(0.00074626121 -7.6358255e-05 -1.6805416e-05)
(0.00037089362 -0.00044492723 7.6077664e-06)
(7.1240133e-05 0.00012344618 4.4175005e-05)
(0.00014255248 7.0077226e-05 1.2744478e-06)
(0.00012138266 -5.9860774e-05 -2.6114039e-05)
(0.00012071545 -0.00010920042 -2.4351122e-06)
(-3.7337583e-05 -0.00052534103 8.4264417e-06)
(5.3557321e-05 6.5720362e-05 4.1794287e-06)
(8.2360929e-05 2.4890049e-05 9.3805545e-07)
(7.3691194e-05 -2.574422e-05 -1.8945301e-06)
(5.9395298e-05 -4.8321912e-05 3.9683114e-06)
(2.1075147e-06 -0.00010892214 8.7092945e-06)
(3.6828718e-05 4.1039823e-05 -3.7636737e-06)
(5.0998392e-05 1.7889055e-05 -2.7361869e-07)
(4.8018964e-05 -7.9127834e-06 1.598523e-06)
(3.7471973e-05 -2.2780482e-05 4.2978411e-06)
(1.4996237e-05 -4.0424065e-05 6.7202181e-06)
(2.4595824e-05 2.7389115e-05 -3.8696075e-06)
(3.3408292e-05 1.3571687e-05 -5.8188905e-07)
(3.3021609e-05 -1.0388124e-06 1.6517849e-06)
(2.6884e-05 -1.1078992e-05 3.2056018e-06)
(1.661459e-05 -1.8412928e-05 4.6945814e-06)
)
;
    }
    procBoundary18to19
    {
        type            processor;
        value           nonuniform List<vector> 
25
(
(0.00062129043 3.198874e-05 4.0827704e-05)
(-2.7182593e-05 3.4003837e-05 3.6314126e-05)
(5.1514124e-06 -5.1822643e-06 2.5863316e-05)
(1.3653039e-05 -1.5693013e-05 1.8442273e-05)
(1.2929179e-05 -1.6534146e-05 1.2620293e-05)
(0.00089324882 1.5442509e-05 3.2553005e-05)
(8.8928256e-05 1.1727557e-05 2.8443348e-05)
(5.1792907e-05 -1.3726774e-05 2.6700261e-05)
(3.1358426e-05 -2.1516378e-05 2.30097e-05)
(1.9748126e-05 -2.2106643e-05 1.7050457e-05)
(0.0011550281 2.790217e-05 -5.6313903e-05)
(0.00015152443 2.8174321e-05 1.0885436e-05)
(8.4522643e-05 -1.0615886e-05 3.0438102e-05)
(4.6492395e-05 -2.5342816e-05 2.9302202e-05)
(2.6026512e-05 -2.8099745e-05 2.1783514e-05)
(0.0014968113 8.2715641e-05 5.6792722e-05)
(0.00030965803 9.855282e-05 7.1915115e-05)
(0.00013924223 4.690028e-06 6.3471171e-05)
(6.5599455e-05 -3.0170966e-05 4.4863258e-05)
(3.2994986e-05 -3.7060911e-05 2.832771e-05)
(0.0014645732 4.299319e-05 0.00019683407)
(0.00034631033 3.4820714e-05 0.00014420113)
(0.0001705771 -3.7667805e-05 9.6930797e-05)
(8.2209619e-05 -6.0486279e-05 5.6572781e-05)
(4.0246369e-05 -5.6185893e-05 3.0934399e-05)
)
;
    }
    procBoundary18to20throughstreamwiseIn
    {
        type            processorCyclic;
        value           nonuniform List<vector> 
25
(
(0.00051564592 5.1629764e-05 -0.00013278286)
(7.0677355e-05 9.3696612e-05 -8.0105972e-05)
(4.2097866e-05 7.642396e-05 -4.8842276e-05)
(2.4143315e-05 5.8926817e-05 -2.8150915e-05)
(1.4226464e-05 4.1323198e-05 -1.5983312e-05)
(0.00055165079 5.4459105e-05 -0.00027199253)
(0.00019502167 0.00011744823 -0.00013470377)
(9.3499231e-05 0.00011060076 -6.5853152e-05)
(4.5740847e-05 7.9709272e-05 -3.4103084e-05)
(2.4073763e-05 5.292272e-05 -1.882903e-05)
(0.0028185514 0.00018919419 -9.4296693e-05)
(0.00042784574 0.00030010589 -4.8550324e-05)
(0.00016989916 0.00017702468 -3.1725556e-05)
(7.3443809e-05 0.00010595092 -2.2234864e-05)
(3.6105703e-05 6.4605029e-05 -1.51455e-05)
(0.001192527 0.0001002464 0.00013870283)
(0.00032638921 0.00018005973 4.0327402e-05)
(0.00016740244 0.00013691608 -6.4620815e-07)
(8.6745815e-05 9.6289303e-05 -1.1639914e-05)
(4.649423e-05 6.5260799e-05 -1.1305285e-05)
(0.0008360628 9.0621203e-05 -3.8165395e-05)
(0.00033257741 0.00016056349 -2.5428706e-05)
(0.00018825556 0.00012505723 -2.1111738e-05)
(0.00010322063 9.5291832e-05 -1.576692e-05)
(5.6831047e-05 6.7952142e-05 -1.0967538e-05)
)
;
    }
    procBoundary18to21
    {
        type            processor;
        value           nonuniform List<vector> 
25
(
(2.0046014e-05 2.0665112e-05 -4.2781209e-06)
(2.5238114e-05 1.0437512e-05 -2.6666739e-07)
(2.512778e-05 4.960626e-07 2.5127742e-06)
(2.1412724e-05 -6.7895988e-06 4.0464009e-06)
(1.5957458e-05 -1.1918797e-05 5.6056143e-06)
(2.536193e-05 2.3043803e-05 -4.5531339e-06)
(2.936136e-05 1.0039782e-05 8.6885838e-07)
(2.7681354e-05 -1.1900284e-06 4.5825705e-06)
(2.3190698e-05 -8.2224369e-06 6.4345286e-06)
(1.8364457e-05 -1.3460621e-05 8.3499377e-06)
(3.1736121e-05 2.4570083e-05 -3.3568517e-06)
(3.4373819e-05 7.9279248e-06 2.5474994e-06)
(3.0693451e-05 -5.0245576e-06 6.7414009e-06)
(2.5180091e-05 -1.1133161e-05 8.8647112e-06)
(2.0967031e-05 -1.621382e-05 1.1056719e-05)
(3.780621e-05 2.3690201e-05 -2.3641229e-06)
(3.9459613e-05 3.779872e-06 2.9243968e-06)
(3.3998566e-05 -1.1196978e-05 6.9530143e-06)
(2.7506016e-05 -1.6012619e-05 1.0007224e-05)
(2.3847679e-05 -2.0566968e-05 1.3230002e-05)
(4.2953316e-05 2.3340358e-05 -2.4107116e-06)
(4.3690957e-05 1.2872297e-06 1.6168294e-06)
(3.7776279e-05 -1.4669937e-05 4.9429843e-06)
(3.1457079e-05 -2.1435999e-05 8.6940449e-06)
(2.7736915e-05 -2.8602376e-05 1.2734079e-05)
)
;
    }
}


// ************************************************************************* //
