/*--------------------------------*- C++ -*----------------------------------*\
| =========                 |                                                 |
| \\      /  F ield         | OpenFOAM: The Open Source CFD Toolbox           |
|  \\    /   O peration     | Version:  3.0.1                                 |
|   \\  /    A nd           | Web:      www.OpenFOAM.org                      |
|    \\/     M anipulation  |                                                 |
\*---------------------------------------------------------------------------*/
FoamFile
{
    version     2.0;
    format      ascii;
    class       volScalarField;
    location    "0.1";
    object      p;
}
// * * * * * * * * * * * * * * * * * * * * * * * * * * * * * * * * * * * * * //

dimensions      [0 2 -2 0 0 0 0];

internalField   nonuniform List<scalar> 
125
(
-0.039511765
-0.064926801
-0.068627646
-0.076423971
-0.11728272
-0.043947463
-0.056732252
-0.068965913
-0.083162156
-0.10355456
-0.049408855
-0.057369441
-0.066992317
-0.077330409
-0.087372965
-0.052167827
-0.057593047
-0.064014298
-0.070335689
-0.075017162
-0.053190586
-0.056959521
-0.061062376
-0.064695979
-0.066748424
0.013642829
-0.040665745
-0.061580602
-0.086419669
-0.10840284
-0.038798406
-0.052171564
-0.065532029
-0.080722174
-0.097367977
-0.050072899
-0.056618078
-0.065093903
-0.074530754
-0.083820103
-0.052802261
-0.057376358
-0.062909077
-0.068563692
-0.073118003
-0.053421751
-0.056776243
-0.060403919
-0.063701031
-0.065761911
-0.043527834
-0.044436374
-0.061067362
-0.090563251
-0.10037916
-0.051511664
-0.054678663
-0.064609573
-0.077317393
-0.091704844
-0.053633797
-0.057594581
-0.063979679
-0.071654972
-0.080497143
-0.053886599
-0.057552827
-0.062009432
-0.066785815
-0.071241273
-0.053709055
-0.056659774
-0.059765434
-0.062663796
-0.064716033
-0.081596954
-0.027821539
-0.078038993
-0.054102696
-0.049752817
-0.062701385
-0.057745573
-0.065076856
-0.064625655
-0.077293255
-0.056840275
-0.059096046
-0.062897812
-0.066807225
-0.07516198
-0.05472246
-0.057771493
-0.06103973
-0.064569018
-0.068819256
-0.053860301
-0.056488704
-0.05906817
-0.061496962
-0.063475132
-0.072922016
-0.15403921
-0.065191309
0.037188137
-0.064652879
-0.062986561
-0.077141529
-0.062500256
-0.047132272
-0.07462358
-0.056832436
-0.061708309
-0.061368144
-0.061918068
-0.072019011
-0.054490702
-0.057717911
-0.059900808
-0.062453919
-0.066751134
-0.053655749
-0.056112124
-0.058283056
-0.060349459
-0.062256217
)
;

boundaryField
{
    movingWall
    {
        type            zeroGradient;
    }
    CPLReceiveMD
    {
        type            zeroGradient;
    }
    streamwiseIn
    {
        type            cyclic;
    }
    streamwiseOut
    {
        type            cyclic;
    }
    front
    {
        type            cyclic;
    }
    back
    {
        type            cyclic;
    }
    procBoundary1to0
    {
        type            processor;
        value           nonuniform List<scalar> 
25
(
-0.037561328
-0.042191157
-0.046237974
-0.048757576
-0.050222798
-0.048484663
-0.048773846
-0.049190502
-0.049884472
-0.050605344
-0.06295841
-0.05573843
-0.051918776
-0.050902011
-0.050964562
-0.11788831
-0.065529672
-0.054048974
-0.051487098
-0.051158513
-0.052759689
-0.052930381
-0.051255343
-0.050805237
-0.051001741
)
;
    }
    procBoundary1to2
    {
        type            processor;
        value           nonuniform List<scalar> 
25
(
-0.16544806
-0.12094613
-0.091895878
-0.075182239
-0.06577691
-0.14874892
-0.1160386
-0.090074552
-0.074305785
-0.065310807
-0.15565641
-0.11735812
-0.089398035
-0.073496254
-0.06474277
-0.13231527
-0.10791907
-0.08555918
-0.071700057
-0.063819416
-0.15891191
-0.10978697
-0.083381718
-0.069901709
-0.062758604
)
;
    }
    procBoundary1to4
    {
        type            processor;
        value           nonuniform List<scalar> 
25
(
-0.053419469
-0.056017304
-0.058604003
-0.060656604
-0.061497496
-0.053451709
-0.055854901
-0.05821388
-0.06011512
-0.060992085
-0.053484557
-0.055684035
-0.0577937
-0.059520365
-0.06040698
-0.053458431
-0.055470792
-0.057332637
-0.058867051
-0.05973307
-0.053313596
-0.05516723
-0.0568339
-0.058207542
-0.059042524
)
;
    }
    procBoundary1to10
    {
        type            processor;
        value           nonuniform List<scalar> 
25
(
-0.059315807
-0.080626486
-0.057678647
-0.033622893
-0.089010571
-0.055426863
-0.063809737
-0.059085898
-0.05639127
-0.07682336
-0.05372158
-0.05809547
-0.059266795
-0.061709664
-0.070264889
-0.053236489
-0.056265162
-0.058554995
-0.06124157
-0.065055384
-0.053135585
-0.055408845
-0.057456897
-0.059423761
-0.061154464
)
;
    }
    procBoundary1to19throughfront
    {
        type            processorCyclic;
        value           nonuniform List<scalar> 
25
(
-0.024846962
-0.037052114
-0.046681698
-0.051272915
-0.052975023
-0.03986016
-0.052982264
-0.056866983
-0.057679661
-0.057131626
-0.075990381
-0.072731376
-0.069143091
-0.065206595
-0.061695552
-0.099193783
-0.091984992
-0.08158476
-0.072406664
-0.0656766
-0.1457639
-0.11524523
-0.092658803
-0.077353982
-0.067750746
)
;
    }
}


// ************************************************************************* //
