/*--------------------------------*- C++ -*----------------------------------*\
| =========                 |                                                 |
| \\      /  F ield         | OpenFOAM: The Open Source CFD Toolbox           |
|  \\    /   O peration     | Version:  3.0.1                                 |
|   \\  /    A nd           | Web:      www.OpenFOAM.org                      |
|    \\/     M anipulation  |                                                 |
\*---------------------------------------------------------------------------*/
FoamFile
{
    version     2.0;
    format      ascii;
    class       surfaceScalarField;
    location    "0.1";
    object      phi;
}
// * * * * * * * * * * * * * * * * * * * * * * * * * * * * * * * * * * * * * //

dimensions      [0 3 -1 0 0 0 0];

internalField   nonuniform List<scalar> 
300
(
0.2541301
0.0088775325
-0.10610352
0.36900055
-0.01635654
-0.048448252
0.36770696
0.00067251047
-0.014076465
0.28882989
0.013442279
0.019936987
-0.02745007
-0.017756729
0.025611725
0.010923901
-0.010276514
0.024559446
0.0012757457
-0.0091106646
0.02848363
-0.0039484304
-0.0068669062
0.040830213
-0.011665532
-0.0048862767
-0.03236175
-0.012377827
0.015918459
0.0055176426
0.0013313184
0.019244977
0.00044492441
-0.0015010648
0.020675488
-0.0059576826
-0.0037970906
0.020081667
-0.013989997
-0.0056012588
-0.02471403
-0.00710779
0.010848324
0.0020455851
0.0012692898
0.012841095
-0.0012683653
-0.00043317325
0.012641485
-0.0059059441
-0.0022106864
0.009361111
-0.011281846
-0.0035447354
-0.016540951
-0.0037992704
0.0075349496
0.00046254326
0.0082036727
-0.00036630763
0.0072659088
-0.001316755
0.00410411
-0.0019899033
-0.0019731158
0.21294215
0.10473559
0.11416386
0.133911
0.022994003
0.0075508827
0.11295246
0.0078917738
-0.0010327799
0.13603657
-0.011387545
0.0082407037
-0.022064918
-0.016048648
0.026754936
0.022537897
0.025411351
0.026745356
0.0088935762
0.0050085787
0.030395833
-0.00087749087
-0.0018468716
0.033315607
-0.012381975
-0.0068171334
-0.027094415
-0.011334907
0.013087031
0.0054630506
0.0071190759
0.016950733
0.0015168311
0.0019514565
0.01887275
-0.0043705692
-0.0022299943
0.018576936
-0.011935544
-0.005754161
-0.021406039
-0.0066490415
0.0091461862
0.0012398629
0.002168067
0.011064027
-0.0012007578
0.00035230545
0.011307941
-0.0050117619
-0.0018001595
0.0091071538
-0.009727239
-0.0035568568
-0.014714798
-0.0037547308
0.0067062659
0.00057450807
0.007253403
-0.00023308295
0.0065929475
-0.0012772185
0.0041210374
-0.0020747641
-0.0020920376
0.084874451
0.015953735
0.076042182
0.10509044
0.020468055
-0.033134468
0.063093701
0.0070690265
0.033874059
0.17061184
-0.026456784
-0.072830604
-0.017342372
-0.10111275
0.0063540594
0.0042457673
0.022372157
0.019876488
0.0058333255
0.006145095
0.025415533
-0.001263179
0.00093027436
0.028820052
-0.011322029
-0.025381477
-0.022412672
-0.028809417
0.0079208018
0.00050637369
0.0064106215
0.01276875
-8.3145647e-05
0.0030027943
0.015350095
-0.003941333
-0.0021649495
0.0176837
-0.0097400255
-0.0096951547
-0.018512742
-0.010668442
0.007330791
-0.00035497667
0.0016709
0.0089117698
-0.0017865304
0.0004365035
0.0095517495
-0.0044890503
-0.0019402478
0.008909698
-0.0082453756
-0.0044339842
-0.013052256
-0.0048441492
0.0058988178
0.00030209127
0.0062094395
-0.00034276047
0.0057956033
-0.0013952042
0.0041038711
-0.0023341556
-0.0024820733
0.66548578
-0.037744463
-0.017300702
0.32063174
0.059730798
0.25200257
0.4060497
-0.025876424
-0.02565182
0.49444841
0.021036087
-0.182281
0.054989076
0.029720727
-0.0097085012
-0.0117192
0.00057266213
0.014701894
0.0026847011
0.038754836
-0.00077412798
-0.0043525188
-0.0051520118
0.025464409
0.0043681901
-0.03496391
-0.0042668931
-0.0053455941
0.0045119112
-0.0042378139
-1.5685632e-05
0.0076015552
-0.0026483138
0.0052186735
0.0078214245
-0.0037180045
-0.0030599192
0.016707782
-0.0044750627
-0.0097753666
-0.012682675
-0.0062873154
0.0060963176
-0.0017250953
-0.00046373235
0.0065352387
-0.0025663578
-0.00010857552
0.0070583473
-0.0039442096
-0.0022785089
0.0084991381
-0.0061444553
-0.0042302284
-0.010688779
-0.0041368349
0.0052539989
-0.00040947022
0.0051571213
-0.00075393799
0.0048567734
-0.0015710071
0.003955913
-0.002295616
-0.0024383649
0.21919234
-0.019871221
0.77132583
-0.15357144
0.76601491
-0.0053765038
0.27395336
0.1684021
0.019920161
0.028298796
-0.012314469
-0.029025645
-0.030849391
-0.03046203
-0.0022654894
0.054973638
0.029555839
-0.0052037334
0.0097468684
-0.0046856732
-0.00067677558
-0.0079890196
0.0011056089
-0.0029362353
0.020195577
0.0010790528
-0.010534226
0.0064516303
-0.0016709481
0.0043654854
-0.0032139374
0.0051066932
-0.0032368041
0.0085925379
-0.0042083342
-0.008990498
0.0049095379
0.0043401209
0.004132238
0.0038132372
)
;

boundaryField
{
    movingWall
    {
        type            calculated;
        value           nonuniform 0();
    }
    CPLReceiveMD
    {
        type            calculated;
        value           uniform 0;
    }
    streamwiseIn
    {
        type            cyclic;
        value           nonuniform 0();
    }
    streamwiseOut
    {
        type            cyclic;
        value           nonuniform 0();
    }
    front
    {
        type            cyclic;
        value           nonuniform 0();
    }
    back
    {
        type            cyclic;
        value           nonuniform 0();
    }
    procBoundary1to0
    {
        type            processor;
        value           nonuniform List<scalar> 
25
(
-0.12756176
-0.0035440816
-0.0063416028
-0.0068187723
-0.0059323169
-0.53796582
0.019768443
-0.0017677065
-0.0058343975
-0.0056298281
-0.062708365
0.0084188589
-0.0034317879
-0.0059677207
-0.0054860162
-0.53440785
0.0054939465
-0.0055833514
-0.0064685746
-0.0054002392
-0.1894611
-0.020153876
-0.01115221
-0.0073676676
-0.0053040733
)
;
    }
    procBoundary1to2
    {
        type            processor;
        value           nonuniform List<scalar> 
25
(
0.27717605
0.034819245
0.0090406735
0.00032863674
-0.0019427427
0.15638881
0.037350307
0.012503783
0.0023740016
-0.00090198269
0.27292949
0.051340142
0.017796134
0.0045081021
5.3647311e-05
0.30856691
0.061265104
0.020786359
0.0057593605
0.00068884378
0.23508418
0.070327028
0.022717986
0.0062990507
0.0010053226
)
;
    }
    procBoundary1to4
    {
        type            processor;
        value           nonuniform List<scalar> 
25
(
0.00045796396
-0.001884952
-0.0049179992
-0.0080805236
-0.0105042
6.020147e-05
-0.0018429874
-0.004380947
-0.007173081
-0.0095413576
-0.00044894392
-0.0019517129
-0.0039440258
-0.0062876491
-0.0086192667
-0.00080391715
-0.0020361084
-0.0034714548
-0.0052602034
-0.0074847584
-0.00068448301
-0.0018902591
-0.0028986841
-0.0042839364
-0.0064279093
)
;
    }
    procBoundary1to10
    {
        type            processor;
        value           nonuniform List<scalar> 
25
(
-0.027192201
-0.14658187
-0.015004554
0.1413736
0.048631889
-0.015113834
-0.026637632
-0.0068287685
0.018493628
0.0043909701
-0.0062193049
-0.0072215833
-0.0042027361
-0.00042064398
-0.0035101004
-0.0025076705
-0.002904863
-0.0026918361
-0.0024255801
-0.0033920623
-0.0010403161
-0.0014067255
-0.0016527204
-0.0018519535
-0.0022039836
)
;
    }
    procBoundary1to19throughfront
    {
        type            processorCyclic;
        value           nonuniform List<scalar> 
25
(
-0.029318838
-0.013783213
-0.0054520567
-0.001789065
-0.00043103126
-0.050039187
-0.0074894824
-0.0010031158
0.00017351343
0.00034417803
0.01471135
0.007531157
0.0043012749
0.0023842415
0.0012661163
0.045484997
0.017640087
0.0085075044
0.0041414568
0.0019609687
0.056912105
0.023379376
0.010571245
0.0046734496
0.0020044843
)
;
    }
}


// ************************************************************************* //
