/*--------------------------------*- C++ -*----------------------------------*\
| =========                 |                                                 |
| \\      /  F ield         | OpenFOAM: The Open Source CFD Toolbox           |
|  \\    /   O peration     | Version:  3.0.1                                 |
|   \\  /    A nd           | Web:      www.OpenFOAM.org                      |
|    \\/     M anipulation  |                                                 |
\*---------------------------------------------------------------------------*/
FoamFile
{
    version     2.0;
    format      ascii;
    class       volVectorField;
    location    "0.1";
    object      U;
}
// * * * * * * * * * * * * * * * * * * * * * * * * * * * * * * * * * * * * * //

dimensions      [0 1 -1 0 0 0 0];

internalField   nonuniform List<vector> 
125
(
(0.00033506854 1.1112914e-05 -9.5997834e-05)
(0.00082283227 -2.0438545e-05 1.9689437e-06)
(0.0010865819 8.4156198e-07 -3.59888e-05)
(0.00082424372 1.6799327e-05 -3.1927532e-05)
(0.00055562866 -3.4329249e-05 -9.3312787e-05)
(3.6419442e-05 2.4765268e-05 4.3640078e-06)
(6.2733516e-05 -1.8847296e-05 -2.0285857e-06)
(6.6338573e-05 -4.0942051e-06 -1.7999513e-05)
(8.6647666e-05 2.2182734e-06 -2.8158107e-05)
(9.4545374e-05 -7.4785038e-05 -4.4693849e-05)
(2.7827052e-05 2.0547914e-05 8.4766013e-06)
(4.395842e-05 2.1473402e-06 -6.234827e-07)
(4.9902326e-05 -1.238424e-05 -1.0123863e-05)
(5.0952015e-05 -3.2071253e-05 -1.7636212e-05)
(3.6415621e-05 -7.1349184e-05 -2.2098015e-05)
(2.2084077e-05 9.4521954e-06 3.8229462e-06)
(2.9614017e-05 -1.0299314e-06 -7.5860543e-07)
(3.1855838e-05 -1.483173e-05 -5.7440817e-06)
(2.7507204e-05 -3.15932e-05 -9.6081526e-06)
(1.2117931e-05 -5.156875e-05 -1.0591082e-05)
(1.6833985e-05 3.128047e-06 1.1172947e-06)
(1.9674447e-05 -3.9428452e-06 -8.879656e-07)
(1.9338991e-05 -1.3531113e-05 -3.2286007e-06)
(1.4214952e-05 -2.4203635e-05 -4.9387315e-06)
(2.7039976e-06 -3.3805139e-05 -4.9720891e-06)
(0.00015813637 0.00013092789 1.0063871e-05)
(0.00053265428 2.8759477e-05 -5.1149605e-05)
(0.00023003257 9.8685205e-06 -1.8875404e-05)
(0.00031780907 -1.4235783e-05 3.5237061e-05)
(0.00041532807 -2.7593581e-05 -4.2251782e-05)
(8.538353e-06 0.00015911328 1.8908243e-05)
(6.6920575e-05 3.9874414e-05 -5.136164e-06)
(7.1405232e-05 8.7715899e-06 -1.0893561e-05)
(7.9640279e-05 -2.9716051e-05 -1.4614898e-05)
(8.8358537e-05 -6.1465139e-05 -2.9628251e-05)
(1.8566683e-05 3.5008085e-05 1.0561337e-05)
(3.7552109e-05 1.3008518e-05 5.6120765e-07)
(4.4781137e-05 -6.5618071e-06 -7.5340093e-06)
(4.6815446e-05 -3.0400802e-05 -1.4191401e-05)
(3.8861553e-05 -6.0630051e-05 -1.7192992e-05)
(1.8724807e-05 8.3712198e-06 4.2968006e-06)
(2.5264523e-05 3.9151697e-07 -1.0113618e-07)
(2.7966932e-05 -1.1730458e-05 -5.0135462e-06)
(2.5521845e-05 -2.7080111e-05 -8.8765321e-06)
(1.4356847e-05 -4.5151435e-05 -9.4417999e-06)
(1.5419657e-05 1.6232502e-06 1.2966112e-06)
(1.745041e-05 -3.8062761e-06 -7.4891373e-07)
(1.7309501e-05 -1.1742102e-05 -3.2422083e-06)
(1.3394457e-05 -2.1125851e-05 -5.0805768e-06)
(4.0261214e-06 -3.0319065e-05 -5.0811466e-06)
(1.9187206e-05 1.9953337e-05 0.00023775366)
(0.00039366354 2.5601153e-05 -3.1927401e-05)
(0.00012465726 8.8333372e-06 4.1041347e-05)
(0.00010959118 -3.3069654e-05 -8.0761818e-05)
(0.00090603681 -2.1683538e-05 -0.0001464488)
(-2.6337451e-06 2.5258334e-05 5.9756468e-05)
(3.2831771e-05 3.2889642e-05 1.3933489e-05)
(5.6598094e-05 7.2571015e-06 -1.1408127e-06)
(6.7740483e-05 -4.7227269e-05 -4.0244998e-05)
(0.00010028938 -4.9704385e-05 -5.0191326e-05)
(1.4186669e-05 5.9364715e-06 1.6918033e-05)
(2.5863049e-05 7.1823713e-06 6.1933236e-06)
(3.5149652e-05 -6.5042233e-06 -5.4927279e-06)
(4.1292989e-05 -2.6332889e-05 -1.9311909e-05)
(4.4359272e-05 -5.116273e-05 -2.1649081e-05)
(1.662172e-05 1.8747002e-07 4.8001978e-06)
(2.030367e-05 -2.3400527e-06 9.8657529e-07)
(2.3080442e-05 -1.0539929e-05 -4.6753023e-06)
(2.307895e-05 -2.2482376e-05 -9.9887264e-06)
(1.6777696e-05 -3.9456904e-05 -1.0749016e-05)
(1.4230439e-05 -1.0053077e-06 1.0961615e-06)
(1.5135628e-05 -4.6739448e-06 -7.1956594e-07)
(1.5007328e-05 -1.054233e-05 -3.3404707e-06)
(1.2376013e-05 -1.8166745e-05 -5.5111994e-06)
(5.1993214e-06 -2.7088551e-05 -5.7176716e-06)
(0.0027024983 -4.7187655e-05 7.3471682e-05)
(0.00092809238 7.4636423e-05 0.00027358715)
(0.00023047783 -3.2333585e-05 1.0275071e-05)
(0.0020337117 2.6321928e-05 -0.00031889443)
(0.00060655105 6.873779e-05 -8.9264494e-05)
(-1.8731178e-05 -6.1840918e-05 2.8686927e-05)
(6.1712514e-06 7.8011261e-05 5.6156024e-05)
(1.7239418e-05 -3.7782446e-05 -5.2752756e-06)
(3.106489e-05 3.1774828e-05 -7.5465906e-05)
(0.00010833758 6.3408594e-05 -4.2706554e-05)
(1.2614189e-05 -1.99482e-05 7.9960391e-06)
(1.5141385e-05 6.1606189e-08 1.0283041e-05)
(1.9275908e-05 -1.0096299e-05 -6.5306167e-06)
(3.0659211e-05 -1.4452547e-07 -2.4344699e-05)
(4.6881453e-05 -2.1187733e-05 -2.1197882e-05)
(1.5704879e-05 -7.4506521e-06 1.5095115e-06)
(1.5789023e-05 -6.5213726e-06 4.1100427e-07)
(1.699163e-05 -9.578201e-06 -5.2734743e-06)
(1.9448131e-05 -1.3279402e-05 -1.0831677e-05)
(1.7829422e-05 -2.9220025e-05 -1.122714e-05)
(1.3317245e-05 -3.1602668e-06 -1.3423813e-07)
(1.3013777e-05 -5.7534697e-06 -1.3709473e-06)
(1.2517868e-05 -9.2703899e-06 -3.708118e-06)
(1.1017256e-05 -1.425766e-05 -5.7878091e-06)
(5.8085744e-06 -2.2717478e-05 -6.1509921e-06)
(0.00032452895 -2.4867842e-05 -5.5625836e-05)
(0.00019514135 -0.00019196677 0.00013176411)
(0.0040518884 -6.721783e-06 -5.0801857e-05)
(0.00032161514 0.00021051907 -5.1127628e-05)
(0.00051957054 2.4919078e-05 9.7941059e-05)
(6.054352e-05 -4.0253856e-05 -1.8185899e-05)
(-1.1639394e-06 -0.00023055107 1.515986e-05)
(-7.3895561e-05 -9.5533419e-06 -1.4977729e-05)
(3.0387215e-05 0.0002474825 -2.0586724e-05)
(0.00015664471 1.8407433e-05 -1.1768311e-06)
(2.6127816e-05 -2.1240949e-05 -7.7966334e-06)
(1.1336385e-05 -4.8562666e-05 -2.5019531e-06)
(5.2219364e-07 -6.5024226e-06 -9.0782138e-06)
(2.6625744e-05 3.830136e-05 -1.2744413e-05)
(5.3660045e-05 -1.9683311e-05 -1.2244055e-05)
(1.7274521e-05 -7.9428072e-06 -3.7154276e-06)
(1.3520684e-05 -1.3994041e-05 -3.7669559e-06)
(1.1837761e-05 -7.7174307e-06 -6.2131067e-06)
(1.7125284e-05 -3.925486e-06 -8.3198365e-06)
(1.8621374e-05 -2.4410015e-05 -9.410911e-06)
(1.2766744e-05 -2.9430927e-06 -1.8127945e-06)
(1.1561748e-05 -6.3784894e-06 -2.7012612e-06)
(1.0590467e-05 -7.6702493e-06 -4.0300775e-06)
(9.9331393e-06 -1.0618791e-05 -5.1848435e-06)
(6.0258917e-06 -1.9273721e-05 -5.8032441e-06)
)
;

boundaryField
{
    movingWall
    {
        type            fixedValue;
        value           nonuniform 0();
    }
    CPLReceiveMD
    {
        type            fixedValue;
        value           nonuniform List<vector> 
25
(
(0.53338843 0 0)
(0.35405989 0 0)
(0.12924179 0 0)
(5.8640788 0 0)
(0.1416633 0 0)
(1.5017802 0 0)
(0.69021934 0 0)
(0.70018844 0 0)
(1.875461 0 0)
(0.42687127 0 0)
(2.1184214 0 0)
(0.23103451 0 0)
(0.018608146 0 0)
(0.32678287 0 0)
(9.0735387 0 0)
(1.4067991 0 0)
(0.40178908 0 0)
(0.021282028 0 0)
(4.2153257 0 0)
(0.6436073 0 0)
(0.66683885 0 0)
(0.51935331 0 0)
(1.4888562 0 0)
(0.82203179 0 0)
(0.059344908 0 0)
)
;
    }
    streamwiseIn
    {
        type            cyclic;
    }
    streamwiseOut
    {
        type            cyclic;
    }
    front
    {
        type            cyclic;
    }
    back
    {
        type            cyclic;
    }
    procBoundary1to0
    {
        type            processor;
        value           nonuniform List<vector> 
25
(
(0.00029318996 1.157075e-05 0.00012302937)
(-1.5881082e-05 2.1687354e-05 5.622673e-05)
(6.7946761e-06 1.6415996e-05 1.9916909e-05)
(1.3648725e-05 9.9631192e-06 6.3919569e-06)
(1.3448729e-05 5.8280795e-06 1.8440648e-06)
(0.0028252397 7.2125106e-07 6.3470971e-05)
(-4.7806342e-05 1.7631239e-06 3.3866898e-05)
(4.5137962e-06 2.777474e-06 1.4201579e-05)
(1.428572e-05 3.5385323e-06 5.3612214e-06)
(1.3732365e-05 3.2849265e-06 1.8546324e-06)
(0.00036971304 -1.8064481e-05 0.00017325153)
(-5.5219467e-06 -2.7613239e-05 4.1889213e-05)
(1.406067e-05 -1.2089685e-05 1.2145989e-05)
(1.6549402e-05 -2.3838269e-06 4.0065034e-06)
(1.4046247e-05 1.0383427e-06 1.3828456e-06)
(0.00017078091 -0.00013072788 -2.5471777e-05)
(3.2204245e-05 -0.00015942901 -7.0196524e-06)
(2.397579e-05 -3.5105246e-05 -1.6581049e-06)
(1.8614758e-05 -7.2246116e-06 -2.4179675e-07)
(1.4045647e-05 -2.404813e-07 9.2747997e-08)
(0.00081078897 3.9991066e-07 -0.00018249004)
(5.9188467e-05 -3.7871038e-06 -4.9627315e-05)
(3.0448494e-05 -5.3118279e-06 -1.4441441e-05)
(1.9208704e-05 -6.3297401e-07 -4.2027419e-06)
(1.3412625e-05 1.4280621e-06 -1.0875794e-06)
)
;
    }
    procBoundary1to2
    {
        type            processor;
        value           nonuniform List<vector> 
25
(
(0.00090628956 -0.00011124606 -5.943506e-05)
(4.5278299e-05 -0.00018387387 -2.7904298e-05)
(-1.1660254e-05 -0.00011441543 -1.2510765e-05)
(-1.8555777e-05 -6.5304803e-05 -5.4977196e-06)
(-1.5175682e-05 -3.6855894e-05 -2.3936994e-06)
(0.00034394116 -8.1777169e-05 -2.4437462e-05)
(6.1062153e-05 -0.00014668945 -8.9732115e-06)
(2.958803e-06 -0.00010433762 -6.2477754e-06)
(-1.1167012e-05 -6.1915526e-05 -4.2167669e-06)
(-1.1682768e-05 -3.5271203e-05 -2.585253e-06)
(0.00060863281 -9.5769447e-05 -4.105987e-05)
(0.00012941365 -0.00016567148 -2.0303893e-05)
(2.2331858e-05 -0.00010965898 -1.1292018e-05)
(-4.0965208e-06 -6.164228e-05 -6.5161519e-06)
(-8.5778582e-06 -3.409116e-05 -3.7287464e-06)
(0.00068781212 -6.0999176e-05 8.0866656e-06)
(0.00011996174 -0.00011689992 -1.8932488e-05)
(2.6670722e-05 -9.0549875e-05 -1.5043882e-05)
(-5.434649e-07 -5.4352255e-05 -8.9879983e-06)
(-6.441276e-06 -3.0830914e-05 -4.9612388e-06)
(0.00085315255 -0.00012279103 -1.2266746e-05)
(0.00015421654 -0.00018880503 -2.5799039e-05)
(3.2187163e-05 -9.9714493e-05 -1.8518365e-05)
(1.661709e-06 -5.1559637e-05 -1.063746e-05)
(-5.0050588e-06 -2.7797455e-05 -5.6881726e-06)
)
;
    }
    procBoundary1to4
    {
        type            processor;
        value           nonuniform List<vector> 
25
(
(1.2313153e-05 3.8060075e-07 1.0822608e-07)
(1.2954857e-05 -4.6050551e-06 -7.6696561e-07)
(1.1595048e-05 -1.0774367e-05 -1.8104978e-06)
(7.2331771e-06 -1.6958603e-05 -2.4893136e-06)
(-5.3432767e-07 -2.1319646e-05 -2.3029497e-06)
(1.1633605e-05 -2.711839e-07 1.6344581e-07)
(1.1899171e-05 -4.454305e-06 -8.3223575e-07)
(1.0647357e-05 -9.7026496e-06 -2.0247634e-06)
(6.9448826e-06 -1.5196031e-05 -2.8396413e-06)
(2.1149474e-07 -1.9496118e-05 -2.7252122e-06)
(1.0909432e-05 -1.0756234e-06 1.6680771e-08)
(1.0766648e-05 -4.52807e-06 -9.6061826e-07)
(9.5876421e-06 -8.7710188e-06 -2.2035901e-06)
(6.5327283e-06 -1.3450861e-05 -3.1205356e-06)
(8.5328e-07 -1.7684351e-05 -3.1474295e-06)
(1.0191891e-05 -1.5923121e-06 -4.2827348e-07)
(9.6789e-06 -4.5255061e-06 -1.2935403e-06)
(8.4874395e-06 -7.7587037e-06 -2.4013938e-06)
(6.0010432e-06 -1.1472254e-05 -3.283723e-06)
(1.2561676e-06 -1.551049e-05 -3.4123097e-06)
(9.4679694e-06 -1.2958253e-06 -9.3347958e-07)
(8.7935274e-06 -4.0753739e-06 -1.7259106e-06)
(7.5974594e-06 -6.5534451e-06 -2.5007411e-06)
(5.5218124e-06 -9.5537778e-06 -3.1157511e-06)
(1.4427104e-06 -1.3426545e-05 -3.3416798e-06)
)
;
    }
    procBoundary1to10
    {
        type            processor;
        value           nonuniform List<vector> 
25
(
(0.00050282182 -9.7200496e-06 -8.5041473e-05)
(0.00019956748 -4.2033311e-05 -0.00025216472)
(0.0004488636 3.5159449e-06 -3.2112648e-05)
(0.00025723419 5.6888749e-05 0.00022678148)
(0.00028645355 -3.0427711e-05 3.0566225e-05)
(4.5428414e-05 -1.3983955e-05 -3.9804208e-05)
(9.1962151e-06 -5.632045e-05 -6.1578429e-05)
(-1.8407147e-05 3.9665745e-06 -1.9103574e-05)
(4.438522e-05 7.0183783e-05 3.202793e-05)
(0.00010303553 -4.6824757e-05 -4.0202229e-06)
(2.455352e-05 -5.4777253e-06 -1.5888376e-05)
(1.3859759e-05 -1.8865217e-05 -1.9822969e-05)
(9.0334728e-06 -1.3316737e-06 -1.1560962e-05)
(2.749325e-05 1.2122366e-05 -1.8225716e-06)
(4.1107479e-05 -2.9421818e-05 -1.0387333e-05)
(1.6140665e-05 -1.4668132e-06 -6.1858778e-06)
(1.3291344e-05 -6.7206806e-06 -7.9380561e-06)
(1.243875e-05 -4.5300647e-06 -6.8399446e-06)
(1.6250327e-05 -5.7198324e-06 -5.4641497e-06)
(1.5511798e-05 -2.2779214e-05 -8.0547191e-06)
(1.1703563e-05 -3.7831879e-07 -2.4594694e-06)
(1.0796494e-05 -3.7124244e-06 -3.5661012e-06)
(1.0034286e-05 -5.5580243e-06 -3.9126212e-06)
(9.2440891e-06 -9.053575e-06 -4.0861773e-06)
(5.3052453e-06 -1.6648247e-05 -5.000137e-06)
)
;
    }
    procBoundary1to19throughfront
    {
        type            processorCyclic;
        value           nonuniform List<vector> 
25
(
(0.00087754836 3.051783e-05 0.00010257512)
(6.6942848e-05 5.4590431e-05 4.1015637e-05)
(3.9107112e-05 3.5549141e-05 1.2880204e-05)
(2.587537e-05 1.5730526e-05 3.3785175e-06)
(1.8151687e-05 5.3379704e-06 5.7634465e-07)
(0.00035111493 3.2757797e-05 2.408196e-05)
(8.9253811e-05 4.2467525e-05 5.186475e-06)
(5.6152565e-05 1.1738538e-05 1.1852194e-07)
(3.4831551e-05 6.5599987e-07 -9.819956e-07)
(2.1796305e-05 -3.7979159e-06 -9.3337343e-07)
(0.00017852956 -8.138844e-06 -3.9158517e-05)
(9.751348e-05 -1.7111535e-05 -2.0782756e-05)
(6.1793861e-05 -1.8817241e-05 -1.1197733e-05)
(3.6816479e-05 -1.862572e-05 -5.7187696e-06)
(2.1360267e-05 -1.5675686e-05 -2.7713515e-06)
(0.00054947458 -1.8021063e-05 -6.8214039e-05)
(0.00010637817 -4.4023386e-05 -4.1981479e-05)
(5.8789609e-05 -4.8950758e-05 -2.1573997e-05)
(3.0368846e-05 -3.9777592e-05 -9.9366119e-06)
(1.5137945e-05 -2.824469e-05 -4.2551145e-06)
(0.00023403048 -7.6258556e-05 -0.00011349436)
(8.8052628e-05 -0.00013272638 -6.6955358e-05)
(3.3736092e-05 -9.4732824e-05 -2.9789178e-05)
(1.0246414e-05 -6.2277361e-05 -1.1910352e-05)
(1.4810893e-06 -3.8607197e-05 -4.4424801e-06)
)
;
    }
}


// ************************************************************************* //
