/*--------------------------------*- C++ -*----------------------------------*\
| =========                 |                                                 |
| \\      /  F ield         | OpenFOAM: The Open Source CFD Toolbox           |
|  \\    /   O peration     | Version:  3.0.1                                 |
|   \\  /    A nd           | Web:      www.OpenFOAM.org                      |
|    \\/     M anipulation  |                                                 |
\*---------------------------------------------------------------------------*/
FoamFile
{
    version     2.0;
    format      ascii;
    class       surfaceScalarField;
    location    "0.2";
    object      phi;
}
// * * * * * * * * * * * * * * * * * * * * * * * * * * * * * * * * * * * * * //

dimensions      [0 3 -1 0 0 0 0];

internalField   nonuniform List<scalar> 
300
(
0.30669373
0.011049924
-0.052590885
0.30265184
-0.031646618
0.034181411
0.45007391
-0.057398303
-0.048142172
0.47101431
0.032410858
-0.095511891
0.055802878
0.0084616851
0.068232346
0.020300446
-0.0046822491
0.038251057
-0.010510007
0.000861633
-8.3466682e-05
-0.010544737
-0.011205358
0.024104284
0.011580442
-0.02157429
0.0077114255
-0.017379097
0.04254949
0.017877603
0.0035714107
0.026172474
0.00012468236
0.0025149284
0.015983041
-0.0023302234
-0.0048683578
0.024504092
0.0014962726
-0.012719885
-0.0047688058
-0.016545728
0.026447897
0.013645409
0.004015826
0.021053984
0.0040464405
0.0007681944
0.017252412
-0.00049605935
-0.0032969125
0.019028328
-0.0027529945
-0.0077031065
-0.0078565102
-0.011704116
0.017130183
0.003169518
0.016430069
0.00023559198
0.014863432
-0.0023539647
0.014019268
-0.0050143903
-0.007653467
0.55427636
0.038386477
-0.14909483
0.83844072
-0.11901753
-0.13100415
0.74083584
-0.017005535
0.066454235
0.31561973
0.15399253
0.17564728
0.034562599
0.0273296
0.069680341
0.027299936
-0.032049629
0.015907006
-0.039042387
-0.025280947
-0.021826551
-0.0045686648
0.014203032
0.02941244
0.04608425
0.035038891
0.011866747
0.0087712094
0.040259855
0.018150352
-0.0071342448
0.018875139
-0.0062243127
-0.0090836836
0.0072761078
-0.00081435206
0.0030368085
0.021464676
0.010399818
0.0087740504
0.0010403564
-0.0017221669
0.022934069
0.012758269
-0.00013483944
0.016916449
0.0032231503
-0.0026930588
0.012693284
0.00043847567
-0.00028534976
0.015039963
0.00039853324
-5.0048216e-05
-0.0035969505
-0.0041805928
0.014135119
0.0013808331
0.013825815
-0.00041098857
0.012191847
-0.00093115846
0.011248874
-0.0018400306
-0.0038583154
0.37441234
0.16680403
-0.021970127
0.20969353
0.017938866
0.015801086
0.26515449
-0.073872067
0.084977359
0.40218032
-0.015071817
0.053812551
0.017029023
0.11519671
0.078227393
0.067388206
0.0025136249
0.057814579
0.0087311926
0.0043123941
0.004210889
-0.024546182
0.01854169
0.0034062146
-0.0020278644
0.022827754
0.0032346916
0.030888793
0.038277392
0.027804187
0.003218736
0.031026961
0.0071605315
-0.00030519363
0.012142563
-0.0057880996
0.0032317319
0.010952344
-0.0011697424
0.0091213901
-0.0016477047
0.0094418568
0.020424218
0.014369313
0.0010376786
0.019398456
0.005875975
-0.00033755101
0.012837205
-0.00028904399
0.00080215491
0.010883826
-0.0017121632
0.0024581271
-0.0033907725
0.0018832656
0.012392033
0.00048925992
0.013293879
-9.4870614e-05
0.011292638
5.292203e-05
0.0092267103
0.00024549689
-0.00040401464
0.50905619
0.17096686
0.13887921
0.60629679
-0.021366075
-0.060052464
0.92863173
-0.12617362
-0.11113519
0.95702853
-0.01945593
0.044881103
-0.050678797
0.24752168
0.082649997
0.056979542
0.024464838
0.067882325
0.0050409252
-0.0073136017
0.0044758944
-0.029779029
-0.014405067
0.0082003567
-0.015453703
0.015080267
-0.020954805
0.04754345
0.036056275
0.025079514
0.0049121131
0.034359999
0.0074172377
-0.00093186034
0.01592691
-0.0073245034
-0.0007766552
0.010839858
-0.0081132767
0.0068714215
-0.010396857
0.016749758
0.019345015
0.013809754
-3.4726154e-06
0.020499614
0.0061514266
-0.00018450184
0.014509792
-0.0010839479
0.00056361152
0.010337675
-0.0044190718
0.0029731053
-0.0063123452
0.0052999836
0.011889483
-0.00076434054
0.013436638
-0.00017922114
0.011499309
0.0004786916
0.0085896094
0.0012125142
0.0018175565
0.41726363
0.06330433
0.27371512
0.037059849
0.21378657
-0.031989872
0.35887012
-0.053557111
-0.30139689
0.052187119
0.03276567
0.061361798
0.014622146
0.035398375
-0.015199733
0.037828291
-0.026553828
-0.094790819
0.030913493
0.019847167
0.034601648
0.0083106203
0.024137347
-0.0053688971
0.020710938
-0.013054614
-0.028233697
0.019296684
0.013022436
0.021276205
0.0061612835
0.017025548
-0.0013071094
0.012821287
-0.006370663
-0.010765876
0.012502459
0.014100646
0.012264228
0.0092305076
)
;

boundaryField
{
    movingWall
    {
        type            calculated;
        value           nonuniform 0();
    }
    CPLReceiveMD
    {
        type            calculated;
        value           uniform 0;
    }
    streamwiseIn
    {
        type            cyclic;
        value           nonuniform 0();
    }
    streamwiseOut
    {
        type            cyclic;
        value           nonuniform 0();
    }
    front
    {
        type            cyclic;
        value           nonuniform 0();
    }
    back
    {
        type            cyclic;
        value           nonuniform 0();
    }
    procBoundary9to0
    {
        type            processor;
        value           nonuniform List<scalar> 
25
(
-0.0095466134
0.0015161126
-0.041955346
0.042166218
0.11360937
-0.0094157249
0.0079395819
0.0025701104
0.018368906
0.041380937
-0.007902829
0.0032098654
0.006866847
0.014425946
0.025439495
-0.0058204558
0.00073862774
0.0053381974
0.01018517
0.016188543
-0.0039054533
0.00020146673
0.0035204111
0.0066744228
0.010081924
)
;
    }
    procBoundary9to10
    {
        type            processor;
        value           nonuniform List<scalar> 
25
(
0.2930448
0.048154363
0.028155371
0.017739122
0.011429645
0.26230058
0.025975652
0.01745806
0.01217473
0.0086307609
0.29718114
-0.0050346168
0.0046580365
0.0065984814
0.0062155525
0.87530517
-0.038236219
-0.0070087178
0.0028891555
0.0045511188
1.155551
-0.078758471
-0.018731761
0.00081123036
0.0041597047
)
;
    }
    procBoundary9to11throughstreamwiseIn
    {
        type            processorCyclic;
        value           nonuniform List<scalar> 
25
(
-0.25550977
-0.063371771
-0.035771903
-0.020446524
-0.012791043
-0.49616832
-0.031224967
-0.020406341
-0.013379883
-0.0087227503
-0.66837486
-0.013355254
-0.0089973336
-0.0080469944
-0.0061671275
-0.840854
0.0093854549
-0.0058729488
-0.0070693158
-0.0056721953
-0.40280459
-0.006152951
-0.011636863
-0.0095672427
-0.0069733661
)
;
    }
    procBoundary9to12
    {
        type            processor;
        value           nonuniform List<scalar> 
25
(
0.010178432
0.0043129209
-0.00010259446
-0.0035829697
-0.0075746673
0.0091172896
0.004211876
0.00067246171
-0.0017997923
-0.0046421938
0.0089369879
0.0046420674
0.00074980974
-0.0017249516
-0.0036480749
0.0087731588
0.0046977253
0.00047616671
-0.0024529409
-0.0043168654
0.0089105764
0.0046997188
0.00019898293
-0.0034540216
-0.0056577787
)
;
    }
    procBoundary9to18
    {
        type            processor;
        value           nonuniform List<scalar> 
25
(
0.061087702
0.046435907
-0.019272443
-0.046706447
-0.24787932
0.0089854182
0.0059900059
-0.0052936041
-0.014444134
-0.042472545
-0.0014831001
0.0017005092
-0.00018520292
-0.0032613403
-0.010267642
-0.0029580229
-7.5398593e-06
0.00077661503
0.00049689735
-6.8608035e-05
-0.0023013665
-0.00026764891
0.0008571354
0.0013415422
0.0018930593
)
;
    }
}


// ************************************************************************* //
