/*--------------------------------*- C++ -*----------------------------------*\
| =========                 |                                                 |
| \\      /  F ield         | OpenFOAM: The Open Source CFD Toolbox           |
|  \\    /   O peration     | Version:  3.0.1                                 |
|   \\  /    A nd           | Web:      www.OpenFOAM.org                      |
|    \\/     M anipulation  |                                                 |
\*---------------------------------------------------------------------------*/
FoamFile
{
    version     2.0;
    format      ascii;
    class       volVectorField;
    location    "0.2";
    object      U;
}
// * * * * * * * * * * * * * * * * * * * * * * * * * * * * * * * * * * * * * //

dimensions      [0 1 -1 0 0 0 0];

internalField   nonuniform List<vector> 
125
(
(0.00067491675 1.3714213e-05 -2.7343182e-05)
(0.00078848471 -4.8005952e-05 7.6855144e-05)
(0.00056494 -6.9632688e-05 -8.7725559e-06)
(0.0019600936 4.9391532e-05 -0.00022247247)
(0.000429051 6.9658562e-05 -0.00010302823)
(0.00017032297 3.9616889e-05 8.4669196e-06)
(0.00012472247 -5.691135e-05 -7.8598267e-09)
(2.5894276e-05 -8.30851e-05 -1.7313127e-05)
(2.5391969e-05 6.274806e-05 -6.4589509e-05)
(9.4619117e-05 7.9758229e-05 -7.7223253e-05)
(0.00010134429 4.8274517e-05 1.4750267e-05)
(8.5148047e-05 -7.4747061e-06 1.6652585e-07)
(4.7901538e-05 -1.6364113e-05 -1.4661135e-05)
(4.8403634e-05 1.4679726e-05 -3.6928502e-05)
(6.6379426e-05 4.1134433e-06 -5.3659596e-05)
(6.0804701e-05 3.9426651e-05 1.2425615e-05)
(5.9863779e-05 6.5639897e-06 1.58606e-07)
(4.7793755e-05 -3.5318818e-06 -1.0787458e-05)
(4.5329207e-05 -2.2131588e-06 -2.2829348e-05)
(4.6023554e-05 -1.5824207e-05 -3.5296417e-05)
(3.7752519e-05 2.9766842e-05 8.8937235e-06)
(4.2189442e-05 1.0526273e-05 7.6299037e-08)
(3.9124301e-05 -7.4823102e-07 -7.3375121e-06)
(3.6111172e-05 -8.0296217e-06 -1.4648816e-05)
(3.1824313e-05 -1.9313139e-05 -2.2405191e-05)
(0.0019466269 4.960785e-05 -0.00027144105)
(0.00035008718 -0.00018721623 -9.8901615e-05)
(0.0041521921 -2.2513902e-05 4.039824e-05)
(0.00015350837 0.0002290861 7.4813509e-05)
(0.00096429412 4.9600576e-05 2.7343103e-05)
(0.00014528599 8.3670416e-05 -5.3860358e-05)
(0.00011395168 -0.00020524349 -3.1604682e-05)
(-2.8927344e-05 -2.8021694e-05 5.5310012e-06)
(1.2890902e-05 0.00026703537 9.0962677e-06)
(8.4407526e-05 6.3972626e-05 -1.4889519e-05)
(8.1092875e-05 5.6756063e-05 -6.5946e-06)
(7.4299702e-05 -1.9714398e-05 -1.0302649e-05)
(2.483029e-05 -6.4626906e-06 -2.1079375e-06)
(3.2701752e-05 4.8159681e-05 -6.9431543e-06)
(5.0103543e-05 1.5213151e-05 -2.3792103e-05)
(4.6622599e-05 3.8640326e-05 4.8635454e-06)
(5.0653303e-05 2.6967136e-06 -2.4430517e-06)
(3.6727883e-05 -3.9749563e-07 -4.4427426e-06)
(3.4495814e-05 1.0397103e-05 -9.9344056e-06)
(3.4113231e-05 -3.7913278e-06 -2.0128799e-05)
(2.8907067e-05 2.7341391e-05 5.7140972e-06)
(3.5261858e-05 9.6617286e-06 -2.0016809e-07)
(3.2529858e-05 1.3969012e-06 -4.0941467e-06)
(2.9307901e-05 -2.0925059e-06 -8.5566268e-06)
(2.4860262e-05 -1.0463636e-05 -1.4552253e-05)
(0.00099108982 0.000231488 -0.00021815043)
(0.0006312971 1.9350877e-05 -0.00020167439)
(0.00025756543 -0.00010457326 0.00017847773)
(0.0013639586 -1.6395187e-05 0.0003348808)
(0.00061247837 2.7426843e-05 0.0001715567)
(0.00012296238 0.0003046559 -4.1440968e-05)
(0.00018392275 3.1747447e-05 -3.8976791e-05)
(6.640344e-05 -0.00012566417 3.8721826e-05)
(5.1172944e-06 -1.9077583e-05 8.0944493e-05)
(5.9326427e-06 2.862423e-05 4.9873539e-05)
(6.1754354e-05 0.00010699849 -7.1885518e-06)
(8.963464e-05 2.1687006e-05 -1.4864349e-05)
(5.1260967e-05 -2.6337879e-05 7.9874588e-06)
(2.6719579e-05 -4.3509136e-06 2.3435926e-05)
(2.0014433e-05 -1.1258124e-06 1.008803e-05)
(3.6317928e-05 5.1735349e-05 1.0660153e-06)
(5.055749e-05 1.6666476e-05 -3.939675e-06)
(4.0302401e-05 -5.5180908e-06 6.8215846e-07)
(2.964315e-05 -3.8266294e-06 3.2207654e-06)
(2.1859817e-05 -6.5843559e-06 -2.6771713e-06)
(2.3442847e-05 2.9068383e-05 2.3368565e-06)
(3.2381197e-05 1.3181225e-05 -6.3509614e-07)
(3.0767842e-05 6.7416378e-07 -1.0792099e-06)
(2.5653065e-05 -4.3144958e-06 -1.9321463e-06)
(1.9303388e-05 -8.8235101e-06 -5.262285e-06)
(0.00086084845 0.00022646523 0.00019141418)
(0.0010500565 -2.4295916e-05 -3.9839642e-05)
(0.0017646801 -0.00016237868 -6.2679179e-05)
(0.0034159615 -2.5153905e-05 0.00011085257)
(0.00098370512 -7.22474e-05 0.00058917626)
(9.3076563e-05 0.0002947804 4.2568985e-05)
(0.00019420902 -1.8210754e-05 -3.8754231e-06)
(8.9263549e-05 -0.00019862253 1.1381237e-06)
(2.4983672e-05 -4.4713936e-05 5.1015101e-05)
(-3.0675366e-05 -9.7661457e-05 0.00011735675)
(5.3219867e-05 9.9262994e-05 1.0342953e-05)
(8.9475749e-05 1.5322787e-05 -1.5740055e-06)
(6.3129886e-05 -4.4502421e-05 3.0692102e-06)
(3.4802593e-05 -2.9564189e-05 2.0856192e-05)
(4.4149049e-06 -3.733761e-05 3.5745156e-05)
(3.3362229e-05 4.8165732e-05 1.2908574e-06)
(5.0269446e-05 1.6925968e-05 -6.7242015e-07)
(4.3888323e-05 -9.4641653e-06 1.7317586e-06)
(3.1136485e-05 -1.4970971e-05 7.0441426e-06)
(1.5329146e-05 -1.9141644e-05 9.5605817e-06)
(2.2093466e-05 2.8174318e-05 -3.5257789e-07)
(3.1845792e-05 1.3560648e-05 -3.5142771e-07)
(3.1232807e-05 -5.8998712e-07 6.7451667e-07)
(2.5124825e-05 -7.9338943e-06 1.9023391e-06)
(1.6380826e-05 -1.2306608e-05 1.9054518e-06)
(0.0014787396 8.2503594e-05 0.00024039424)
(0.00051919329 5.5378806e-05 -7.2748091e-06)
(0.00068914384 -4.0700804e-05 -0.0001642767)
(0.00074626121 -7.6358255e-05 -1.6805416e-05)
(0.00037089362 -0.00044492723 7.6077664e-06)
(7.1240133e-05 0.00012344618 4.4175005e-05)
(0.00014255248 7.0077226e-05 1.2744478e-06)
(0.00012138266 -5.9860774e-05 -2.6114039e-05)
(0.00012071545 -0.00010920042 -2.4351122e-06)
(-3.7337583e-05 -0.00052534103 8.4264417e-06)
(5.3557321e-05 6.5720362e-05 4.1794287e-06)
(8.2360929e-05 2.4890049e-05 9.3805545e-07)
(7.3691194e-05 -2.574422e-05 -1.8945301e-06)
(5.9395298e-05 -4.8321912e-05 3.9683114e-06)
(2.1075147e-06 -0.00010892214 8.7092945e-06)
(3.6828718e-05 4.1039823e-05 -3.7636737e-06)
(5.0998392e-05 1.7889055e-05 -2.7361869e-07)
(4.8018964e-05 -7.9127834e-06 1.598523e-06)
(3.7471973e-05 -2.2780482e-05 4.2978411e-06)
(1.4996237e-05 -4.0424065e-05 6.7202181e-06)
(2.4595824e-05 2.7389115e-05 -3.8696075e-06)
(3.3408292e-05 1.3571687e-05 -5.8188905e-07)
(3.3021609e-05 -1.0388124e-06 1.6517849e-06)
(2.6884e-05 -1.1078992e-05 3.2056018e-06)
(1.661459e-05 -1.8412928e-05 4.6945814e-06)
)
;

boundaryField
{
    movingWall
    {
        type            fixedValue;
        value           nonuniform 0();
    }
    CPLReceiveMD
    {
        type            fixedValue;
        value           nonuniform List<vector> 
25
(
(0.065160362 0 0)
(2.7556466 0 0)
(0.99471251 0 0)
(0.71194501 0 0)
(0.59778178 0 0)
(0.56145023 0 0)
(0.021746131 0 0)
(0.21511689 0 0)
(0.47622484 0 0)
(0.30025461 0 0)
(0.5117801 0 0)
(0.62415985 0 0)
(0.12192874 0 0)
(2.7928894 0 0)
(0.53108126 0 0)
(3.9812634 0 0)
(0.29048649 0 0)
(0.47137012 0 0)
(5.8306181 0 0)
(0.36225744 0 0)
(0.22975132 0 0)
(0.46545789 0 0)
(0.68379502 0 0)
(2.1579527 0 0)
(0.95568747 0 0)
)
;
    }
    streamwiseIn
    {
        type            cyclic;
    }
    streamwiseOut
    {
        type            cyclic;
    }
    front
    {
        type            cyclic;
    }
    back
    {
        type            cyclic;
    }
    procBoundary9to0
    {
        type            processor;
        value           nonuniform List<vector> 
25
(
(0.00077560456 1.3806755e-05 1.8477545e-05)
(0.0011238652 -0.00011022937 -5.446257e-05)
(0.0016730047 -1.3957387e-05 3.7002482e-05)
(0.00084006049 7.1008775e-05 -4.4961277e-05)
(0.0011899991 2.3704894e-05 -0.00034269584)
(0.00025011279 4.1585687e-05 1.6250839e-05)
(0.00014010656 -0.0001284309 -3.1316763e-05)
(3.4302326e-05 -2.21184e-05 -2.3837364e-05)
(7.3056709e-05 8.1296551e-05 -4.2747262e-05)
(0.00015280376 1.4513504e-05 -0.0001166214)
(0.00014093722 5.2797362e-05 1.6304315e-05)
(0.00010371125 -1.9880823e-05 -1.1378023e-05)
(6.1924816e-05 -1.2988347e-05 -2.3271119e-05)
(7.1700308e-05 6.3994481e-06 -3.7283755e-05)
(9.7310362e-05 -2.6713731e-05 -6.6587006e-05)
(8.1816523e-05 4.4496868e-05 1.2788344e-05)
(7.3866378e-05 2.7869391e-06 -4.3132e-06)
(5.9715837e-05 -7.7211178e-06 -1.5881673e-05)
(5.9004774e-05 -1.1882583e-05 -2.6627386e-05)
(6.2377056e-05 -3.5045735e-05 -4.1108697e-05)
(4.9560189e-05 3.3897663e-05 8.9871159e-06)
(5.1493095e-05 9.6207239e-06 -1.6519698e-06)
(4.7254973e-05 -4.6883915e-06 -9.8468167e-06)
(4.4375579e-05 -1.5647433e-05 -1.7153345e-05)
(4.0428564e-05 -3.2033577e-05 -2.5363777e-05)
)
;
    }
    procBoundary9to10
    {
        type            processor;
        value           nonuniform List<vector> 
25
(
(0.00086790097 -5.252038e-06 -0.00021458538)
(0.0001087721 -2.0023143e-05 -0.00013287157)
(6.1149409e-05 -3.3804503e-05 -8.4135279e-05)
(3.5749646e-05 -3.6768234e-05 -5.1093173e-05)
(2.1424358e-05 -3.2227639e-05 -3.0217116e-05)
(0.00054814054 3.0202247e-05 -0.00011663665)
(6.2673364e-05 3.4129499e-05 -7.972106e-05)
(3.7074454e-05 -1.8521952e-06 -5.3308193e-05)
(2.415759e-05 -1.4846078e-05 -3.4098143e-05)
(1.6220193e-05 -1.8149481e-05 -2.1077552e-05)
(0.0008000501 3.1743678e-05 -4.6491589e-05)
(-1.7456579e-05 4.3385648e-05 -3.4127244e-05)
(6.6900917e-06 1.1818441e-05 -2.2252685e-05)
(1.2422427e-05 -4.5375923e-06 -1.556332e-05)
(1.1671816e-05 -1.0868e-05 -1.0411583e-05)
(0.0035541629 4.2570994e-05 1.9619955e-05)
(-0.00010008906 5.8373162e-05 7.8539367e-06)
(-2.2183428e-05 1.6711715e-05 2.9493041e-06)
(2.2587959e-06 -3.0049769e-06 1.8056168e-07)
(8.3160237e-06 -9.2820605e-06 -7.8645911e-07)
(0.0063817452 1.9946148e-05 4.3913484e-05)
(-0.0002095235 2.6690462e-05 3.3355115e-05)
(-5.172321e-05 4.1450333e-06 1.9569288e-05)
(-3.5306387e-06 -8.2733587e-06 1.146111e-05)
(7.5417513e-06 -1.187327e-05 6.8812498e-06)
)
;
    }
    procBoundary9to11throughstreamwiseIn
    {
        type            processorCyclic;
        value           nonuniform List<vector> 
25
(
(0.0006957104 8.8778501e-05 0.00023072816)
(0.00013858063 0.00014867564 0.00010516695)
(6.4097374e-05 0.00010186779 6.0010947e-05)
(3.424869e-05 7.0155696e-05 3.5352526e-05)
(2.0192586e-05 4.6868745e-05 2.0729419e-05)
(0.00079144216 4.2984994e-05 -0.00010895762)
(2.6206597e-05 8.8708998e-05 1.5793589e-05)
(1.9880441e-05 7.8507337e-05 2.9287285e-05)
(1.4538481e-05 5.4882397e-05 2.2043718e-05)
(1.0637901e-05 3.710218e-05 1.4109503e-05)
(0.0023897808 0.00021352153 -5.2304966e-06)
(-5.5957977e-05 0.00028691344 1.3043607e-05)
(-1.37457e-05 0.00010811786 1.3008619e-05)
(1.2879612e-06 5.497791e-05 9.3206937e-06)
(4.7856158e-06 3.3545434e-05 6.1785038e-06)
(0.0038064458 6.1230966e-05 0.00026010582)
(-6.8986394e-05 0.00010692073 4.8288968e-05)
(-1.2212629e-05 7.4784389e-05 6.6231905e-06)
(1.21959e-06 4.8052279e-05 -1.1832107e-06)
(4.1670453e-06 3.1831624e-05 -1.5044057e-06)
(0.0007451201 1.5798109e-06 -6.888232e-06)
(-5.6441394e-06 3.330505e-05 -1.6587312e-05)
(9.8126876e-06 5.8645658e-05 -2.0210579e-05)
(9.9698435e-06 4.6850315e-05 -1.4947791e-05)
(7.661071e-06 3.3942654e-05 -9.3360406e-06)
)
;
    }
    procBoundary9to12
    {
        type            processor;
        value           nonuniform List<vector> 
25
(
(2.4462226e-05 2.1761239e-05 5.8693425e-06)
(2.9348706e-05 9.7303556e-06 1.996104e-07)
(2.923786e-05 -1.9201569e-07 -4.7021651e-06)
(2.6764298e-05 -8.4999279e-06 -9.2744206e-06)
(2.1825537e-05 -1.7210349e-05 -1.3726476e-05)
(1.9182146e-05 1.9432315e-05 4.1650864e-06)
(2.4708813e-05 9.5491643e-06 2.1190015e-07)
(2.4973647e-05 1.4799106e-06 -3.0203478e-06)
(2.2635277e-05 -4.7852106e-06 -6.2192796e-06)
(1.8056255e-05 -1.1205553e-05 -9.6391701e-06)
(1.5953718e-05 1.8728043e-05 1.8989421e-06)
(2.2163271e-05 1.0131557e-05 -4.0756385e-08)
(2.280668e-05 1.8631642e-06 -1.30473e-06)
(2.0145476e-05 -4.0850484e-06 -2.6206229e-06)
(1.5306313e-05 -8.7628506e-06 -4.5201428e-06)
(1.5091251e-05 1.8421759e-05 -3.884113e-07)
(2.1505141e-05 1.0224095e-05 -2.8195887e-07)
(2.2393781e-05 1.5057286e-06 1.878217e-08)
(1.9419864e-05 -4.9739161e-06 2.7964648e-07)
(1.3980979e-05 -9.174809e-06 -2.8835552e-08)
(1.645775e-05 1.8928969e-05 -2.6361687e-06)
(2.2570464e-05 1.0303599e-05 -5.0145502e-07)
(2.3368285e-05 1.029821e-06 1.0968048e-06)
(2.0097858e-05 -6.190172e-06 2.2325445e-06)
(1.4201958e-05 -1.1062808e-05 3.0896647e-06)
)
;
    }
    procBoundary9to18
    {
        type            processor;
        value           nonuniform List<vector> 
25
(
(0.0018157264 3.0113967e-05 5.885197e-05)
(0.00055498162 -1.575171e-05 1.4008157e-05)
(0.0023641946 -2.4131937e-05 4.3663844e-05)
(0.00042435168 -1.0790756e-05 -9.5535215e-05)
(0.0018710464 -7.1447897e-05 -0.00060898842)
(0.00011113597 5.843293e-05 -2.2704166e-06)
(0.00012386027 -1.0002811e-05 4.7441725e-06)
(8.5760287e-05 -3.6156229e-05 6.7860787e-06)
(5.8611628e-05 -2.394721e-05 -3.4102294e-05)
(5.4250411e-06 -9.6577857e-05 -0.00010997208)
(7.4368535e-05 5.1324303e-05 -1.1346251e-05)
(8.3401766e-05 1.3774723e-05 3.0617826e-06)
(6.6160206e-05 -1.6789845e-05 5.5474908e-06)
(4.5406157e-05 -2.2831242e-05 -6.4464346e-06)
(2.0015982e-05 -3.9043829e-05 -2.3738703e-05)
(4.8036402e-05 4.0116699e-05 -9.9179323e-06)
(5.5631643e-05 1.5406025e-05 8.3905173e-07)
(4.8459783e-05 -5.9178487e-06 4.9496356e-06)
(3.6258179e-05 -1.5733679e-05 2.9846773e-06)
(2.2492414e-05 -2.3156355e-05 1.3698994e-06)
(3.0847618e-05 2.9301823e-05 -6.8158545e-06)
(3.7367184e-05 1.3332812e-05 -4.0819891e-08)
(3.5020298e-05 -1.0917052e-06 3.778084e-06)
(2.8167622e-05 -9.9991908e-06 4.8920287e-06)
(2.0056474e-05 -1.5937161e-05 6.3600632e-06)
)
;
    }
}


// ************************************************************************* //
