/*--------------------------------*- C++ -*----------------------------------*\
| =========                 |                                                 |
| \\      /  F ield         | OpenFOAM: The Open Source CFD Toolbox           |
|  \\    /   O peration     | Version:  3.0.1                                 |
|   \\  /    A nd           | Web:      www.OpenFOAM.org                      |
|    \\/     M anipulation  |                                                 |
\*---------------------------------------------------------------------------*/
FoamFile
{
    version     2.0;
    format      ascii;
    class       volScalarField;
    location    "0.1";
    object      p;
}
// * * * * * * * * * * * * * * * * * * * * * * * * * * * * * * * * * * * * * //

dimensions      [0 2 -2 0 0 0 0];

internalField   nonuniform List<scalar> 
125
(
-0.052896745
-0.053208166
-0.053441076
-0.05355507
-0.053521441
-0.0528419
-0.053057261
-0.053213728
-0.053285761
-0.053258252
-0.052807557
-0.052958876
-0.053067321
-0.053114123
-0.053090227
-0.052784639
-0.052899943
-0.052980593
-0.05301091
-0.052985413
-0.052772284
-0.052872656
-0.052940072
-0.052961209
-0.052933494
-0.05290072
-0.053232022
-0.053481151
-0.053601768
-0.053564903
-0.052840373
-0.053068227
-0.05323576
-0.053313204
-0.053284063
-0.052799662
-0.052962645
-0.053079983
-0.053131956
-0.05310937
-0.052773351
-0.052898838
-0.052987281
-0.053023815
-0.053003617
-0.052760827
-0.052868895
-0.052943349
-0.052971903
-0.052952469
-0.052896043
-0.053246465
-0.053510098
-0.053639182
-0.053601077
-0.052833588
-0.053074145
-0.053251762
-0.053335361
-0.053306559
-0.052790919
-0.052963583
-0.053089026
-0.053146343
-0.053125309
-0.052764483
-0.052897534
-0.052992491
-0.053033809
-0.053016057
-0.052752945
-0.052866829
-0.052946575
-0.052979642
-0.052962941
-0.052884465
-0.053248837
-0.053524897
-0.053662355
-0.053625067
-0.052823549
-0.053074211
-0.053260707
-0.053349859
-0.053321767
-0.052783269
-0.052963057
-0.053094663
-0.053155383
-0.053134539
-0.052759927
-0.05289718
-0.052995449
-0.053038569
-0.053020834
-0.052750413
-0.0528662
-0.052947572
-0.052981926
-0.05296535
-0.052869931
-0.053241151
-0.053525347
-0.05366809
-0.053632974
-0.052813284
-0.053069839
-0.053262426
-0.053354704
-0.053327147
-0.052778186
-0.052961963
-0.053096471
-0.053158013
-0.053136587
-0.052759708
-0.052897393
-0.052995166
-0.053037626
-0.053018929
-0.052752725
-0.052866107
-0.052945444
-0.052978857
-0.052961424
)
;

boundaryField
{
    movingWall
    {
        type            zeroGradient;
    }
    CPLReceiveMD
    {
        type            zeroGradient;
    }
    streamwiseIn
    {
        type            cyclic;
    }
    streamwiseOut
    {
        type            cyclic;
    }
    front
    {
        type            cyclic;
    }
    back
    {
        type            cyclic;
    }
    procBoundary25to7throughback
    {
        type            processorCyclic;
        value           nonuniform List<scalar> 
25
(
-0.052859323
-0.052808337
-0.052775969
-0.052757874
-0.052749974
-0.053227381
-0.053061471
-0.052957174
-0.05289419
-0.052862734
-0.053511842
-0.053253142
-0.053090134
-0.052990447
-0.052941088
-0.053657336
-0.053346821
-0.053151704
-0.053032261
-0.052973823
-0.053627959
-0.053323485
-0.053132709
-0.053014433
-0.052956163
)
;
    }
    procBoundary25to16
    {
        type            processor;
        value           nonuniform List<scalar> 
25
(
-0.052886477
-0.053180546
-0.053402813
-0.053512534
-0.053482678
-0.052841009
-0.0530425
-0.053190644
-0.053259846
-0.053235863
-0.052809064
-0.052951187
-0.053052672
-0.053096368
-0.053074298
-0.052784719
-0.052895065
-0.052970275
-0.052997082
-0.052971517
-0.052770035
-0.05286741
-0.052930897
-0.052949041
-0.052920672
)
;
    }
    procBoundary25to22
    {
        type            processor;
        value           nonuniform List<scalar> 
25
(
-0.052978312
-0.05343312
-0.053789348
-0.0539753
-0.05393686
-0.052991164
-0.053479119
-0.053860238
-0.054058372
-0.054016813
-0.052992299
-0.053509042
-0.053913185
-0.054125331
-0.054084279
-0.052980412
-0.053517886
-0.05394025
-0.054164187
-0.054126164
-0.052958909
-0.053507077
-0.053939984
-0.054171453
-0.054137626
)
;
    }
    procBoundary25to24
    {
        type            processor;
        value           nonuniform List<scalar> 
25
(
-0.052559317
-0.052606614
-0.052635274
-0.052646744
-0.052649046
-0.052542332
-0.052589466
-0.052617949
-0.052631832
-0.052637239
-0.052521233
-0.052570489
-0.052600662
-0.0526179
-0.052626769
-0.052498529
-0.052552903
-0.052587352
-0.052609094
-0.052621108
-0.052477734
-0.052540268
-0.052580331
-0.052606347
-0.052620331
)
;
    }
    procBoundary25to26
    {
        type            processor;
        value           nonuniform List<scalar> 
25
(
-0.053338175
-0.053133852
-0.053002424
-0.052917743
-0.052874488
-0.053367803
-0.053149508
-0.053014846
-0.052932558
-0.052891963
-0.053395352
-0.053165446
-0.053026187
-0.052942294
-0.052901001
-0.053415397
-0.053177868
-0.05303329
-0.052945584
-0.052902403
-0.053424809
-0.053184738
-0.053036506
-0.052944236
-0.052898354
)
;
    }
}


// ************************************************************************* //
