/*--------------------------------*- C++ -*----------------------------------*\
| =========                 |                                                 |
| \\      /  F ield         | OpenFOAM: The Open Source CFD Toolbox           |
|  \\    /   O peration     | Version:  3.0.1                                 |
|   \\  /    A nd           | Web:      www.OpenFOAM.org                      |
|    \\/     M anipulation  |                                                 |
\*---------------------------------------------------------------------------*/
FoamFile
{
    version     2.0;
    format      ascii;
    class       surfaceScalarField;
    location    "0.1";
    object      phi;
}
// * * * * * * * * * * * * * * * * * * * * * * * * * * * * * * * * * * * * * //

dimensions      [0 3 -1 0 0 0 0];

internalField   nonuniform List<scalar> 
300
(
0.00062191664
-0.00010952729
7.9632595e-06
0.00046515145
-0.00030137462
4.7690142e-05
0.0002276792
-0.00045406945
8.0097225e-05
-6.7143672e-05
-0.00053790454
9.3331084e-05
-0.00052569533
8.6857769e-05
0.00043007526
-6.858466e-05
-3.0403342e-06
0.00031247166
-0.00019647651
2.1917287e-05
0.00014386043
-0.00029238615
4.4022018e-05
-5.4930438e-05
-0.00034278534
5.4830963e-05
-0.00033557372
5.1568574e-05
0.00030218427
-4.576726e-05
-1.576161e-05
0.0002165665
-0.00011768923
7.5333533e-06
9.3466822e-05
-0.00017319837
2.5294569e-05
-4.7717058e-05
-0.00020612242
3.562214e-05
-0.00020932296
3.8235965e-05
0.00023026206
-2.4669663e-05
-2.2540999e-05
0.00016105832
-5.4484286e-05
-2.2039992e-06
6.0544307e-05
-8.0909488e-05
1.3360734e-05
-5.0916987e-05
-9.9242216e-05
2.577461e-05
-0.00010367172
3.6356626e-05
0.00020039362
-2.2874155e-05
0.00013459648
-7.5079342e-06
4.2199194e-05
6.543775e-06
-5.5333052e-05
2.1352959e-05
3.7885704e-05
0.00066164612
-0.00012053585
-9.3263245e-06
0.00049756003
-0.0003271606
2.8870829e-05
0.00024091319
-0.00049016424
5.7850134e-05
-7.3617203e-05
-0.0005764269
7.4766666e-05
-0.00056100437
7.2286769e-05
0.00045503343
-8.1307883e-05
-1.3543866e-05
0.00033457662
-0.00021086539
1.1828127e-05
0.00015466928
-0.0003111211
3.1971728e-05
-5.8192654e-05
-0.00036200278
4.4265147e-05
-0.0003489139
4.4940075e-05
0.00032547935
-5.2547317e-05
-1.745785e-05
0.00023432776
-0.00012742801
1.8767603e-06
0.00010379436
-0.00018513444
1.8064749e-05
-4.5103124e-05
-0.00021597271
2.8737462e-05
-0.00021120477
3.183631e-05
0.00025059907
-2.5008656e-05
-1.7707734e-05
0.00017662304
-5.9789794e-05
-2.6020607e-06
7.2958172e-05
-8.7724548e-05
1.0404719e-05
-4.0334906e-05
-0.00010365873
1.9962338e-05
-0.00010213406
2.484476e-05
0.00021575984
-1.5736502e-05
0.00014864818
-4.1243252e-06
5.7008371e-05
6.4404915e-06
-3.8800277e-05
1.5451193e-05
2.0907283e-05
0.00069984421
-0.0001247548
-2.3123251e-05
0.00052653961
-0.0003442094
4.7365647e-06
0.00025782969
-0.00051605264
2.9556831e-05
-7.609651e-05
-0.00060694046
4.628373e-05
-0.00058836302
4.7920832e-05
0.00048040591
-8.5222543e-05
-2.0048816e-05
0.00035472036
-0.00022081924
1.3147872e-07
0.00016696257
-0.00032503212
1.786373e-05
-5.7517498e-05
-0.00037753531
2.8956624e-05
-0.00036202243
3.0375497e-05
0.00034481414
-5.2797445e-05
-1.5277648e-05
0.00025051579
-0.00013190757
-1.0500791e-06
0.00011446701
-0.00019279576
1.1257664e-05
-4.2004205e-05
-0.00022474947
1.8054644e-05
-0.0002181979
1.8434448e-05
0.0002657048
-2.3041667e-05
-9.0983459e-06
0.00018962984
-6.1313107e-05
-7.0734705e-07
8.2515763e-05
-9.1687032e-05
5.9083047e-06
-3.545246e-05
-0.00010816591
9.5044873e-06
-0.00010606627
9.5423028e-06
0.00022737203
-5.0550921e-06
0.000159213
-1.2570578e-06
6.6019063e-05
1.990538e-06
-3.3344172e-05
4.5597719e-06
4.8111693e-06
0.00072770385
-0.00012167888
-2.9031372e-05
0.00055135971
-0.00034881327
-1.5365044e-05
0.00027455667
-0.00052774502
8.7625852e-07
-7.4458453e-05
-0.00062426791
1.1431609e-05
-0.00060591048
1.5781327e-05
0.00050058624
-8.0450871e-05
-2.0502743e-05
0.00037245271
-0.00022200038
-8.7370113e-06
0.00017805563
-0.00033163788
3.425085e-06
-5.6098194e-05
-0.00038843734
9.6650507e-06
-0.00037396432
1.0738295e-05
0.00035904175
-4.6617956e-05
-1.0151089e-05
0.00026282358
-0.00013156467
-2.1861167e-06
0.00012126404
-0.00019814495
3.6085126e-06
-4.1624262e-05
-0.00023329952
5.2493895e-06
-0.00022709015
4.088451e-06
0.00027409583
-1.9000127e-05
-4.3912782e-07
0.00019624551
-6.1863019e-05
4.2476763e-07
8.6111961e-05
-9.5603773e-05
-5.6689992e-07
-3.54146e-05
-0.00011310884
-1.8835679e-06
-0.00011079564
-3.8059276e-06
0.00023117008
4.6166727e-06
0.0001624606
-1.8450615e-07
6.8588301e-05
-4.2491633e-06
-3.3092757e-05
-6.1277276e-06
-7.8381374e-06
0.00074136698
-0.00011314665
0.00056759911
-0.00034217698
0.00028511169
-0.00052518498
-7.0107284e-05
-0.00062602342
-0.00061094518
0.00051235067
-7.0097797e-05
0.00038461391
-0.0002154461
0.00018429531
-0.00033144965
-5.5024364e-05
-0.00039284808
-0.00038061039
0.00036700632
-3.6905471e-05
0.00026861794
-0.0001289526
0.00012290484
-0.0002023185
-4.2785007e-05
-0.00024043027
-0.00023498269
0.0002749596
-1.3943651e-05
0.00019525376
-6.2471928e-05
8.4795268e-05
-9.9286106e-05
-3.7336898e-05
-0.00011735337
-0.00011482877
0.00022636886
0.00015839591
6.6709726e-05
-3.4803148e-05
)
;

boundaryField
{
    movingWall
    {
        type            calculated;
        value           uniform 0;
    }
    CPLReceiveMD
    {
        type            calculated;
        value           nonuniform 0();
    }
    streamwiseIn
    {
        type            cyclic;
        value           nonuniform 0();
    }
    streamwiseOut
    {
        type            cyclic;
        value           nonuniform 0();
    }
    front
    {
        type            cyclic;
        value           nonuniform 0();
    }
    back
    {
        type            cyclic;
        value           nonuniform 0();
    }
    procBoundary25to7throughback
    {
        type            processorCyclic;
        value           nonuniform List<scalar> 
25
(
-2.1191712e-05
-9.8820124e-06
-4.4289655e-06
-3.6620593e-06
-5.492857e-06
-2.7511572e-05
-1.6715964e-05
-9.5660216e-06
-6.3968445e-06
-6.7347636e-06
-2.698856e-05
-1.8547172e-05
-1.2659113e-05
-9.4237457e-06
-8.6963002e-06
-2.1492677e-05
-1.5747921e-05
-1.2600922e-05
-1.0715178e-05
-1.0049807e-05
-1.0019026e-05
-7.3144592e-06
-7.7450264e-06
-8.9794596e-06
-1.0503692e-05
)
;
    }
    procBoundary25to16
    {
        type            processor;
        value           nonuniform List<scalar> 
25
(
-2.0536651e-05
-5.5206029e-05
-7.6476002e-05
-8.5008991e-05
-7.7456577e-05
-1.7927452e-06
-2.9495824e-05
-4.6122395e-05
-5.1776737e-05
-4.47267e-05
3.0046283e-06
-1.5362971e-05
-2.926297e-05
-3.5464227e-05
-3.181616e-05
1.580497e-07
-9.7446353e-06
-2.0607175e-05
-2.7616828e-05
-2.7750821e-05
-4.4916056e-06
-1.0475832e-05
-1.8320231e-05
-2.4293638e-05
-2.5599863e-05
)
;
    }
    procBoundary25to22
    {
        type            processor;
        value           nonuniform List<scalar> 
25
(
0.00016290058
0.00044930061
0.00069567366
0.00083948315
0.00082990482
0.0001806733
0.00049362496
0.00075736365
0.00091229096
0.00090292384
0.00019229712
0.00052459454
0.00080538091
0.0009713987
0.00096551782
0.00019167473
0.00053751785
0.00082988008
0.0010027315
0.0010012851
0.00017773712
0.00053123769
0.00082839306
0.0010057368
0.0010083536
)
;
    }
    procBoundary25to24
    {
        type            processor;
        value           nonuniform List<scalar> 
25
(
-0.00067384105
-0.00046986453
-0.00034404715
-0.00027537666
-0.00024604575
-0.00071572073
-0.00050106534
-0.00036288218
-0.00028261285
-0.00024674426
-0.00074853128
-0.00052541898
-0.00037994747
-0.0002927285
-0.00025191006
-0.00077075146
-0.0005404905
-0.00039124969
-0.00030121446
-0.00025815731
-0.00078324429
-0.00054521972
-0.00039511879
-0.0003062627
-0.00026432524
)
;
    }
    procBoundary25to26
    {
        type            processor;
        value           nonuniform List<scalar> 
25
(
-0.00036600205
-0.0002484297
-0.0001753434
-0.0001351353
-0.00011780391
-0.00039365994
-0.00026872168
-0.00018876931
-0.00014190656
-0.00012080073
-0.00041089535
-0.00028182266
-0.0001979528
-0.00014730543
-0.00012366294
-0.00041876281
-0.00028738199
-0.00020219887
-0.00015027614
-0.00012567452
-0.00041573342
-0.00028439502
-0.00019986278
-0.00014916184
-0.00012591937
)
;
    }
}


// ************************************************************************* //
