/*--------------------------------*- C++ -*----------------------------------*\
| =========                 |                                                 |
| \\      /  F ield         | OpenFOAM: The Open Source CFD Toolbox           |
|  \\    /   O peration     | Version:  3.0.1                                 |
|   \\  /    A nd           | Web:      www.OpenFOAM.org                      |
|    \\/     M anipulation  |                                                 |
\*---------------------------------------------------------------------------*/
FoamFile
{
    version     2.0;
    format      ascii;
    class       volVectorField;
    location    "0.1";
    object      U;
}
// * * * * * * * * * * * * * * * * * * * * * * * * * * * * * * * * * * * * * //

dimensions      [0 1 -1 0 0 0 0];

internalField   nonuniform List<vector> 
125
(
(1.6196874e-06 -3.4052998e-07 3.5632132e-08)
(1.3588358e-06 -9.3831718e-07 1.2863396e-07)
(8.6605447e-07 -1.4371162e-06 1.9573568e-07)
(2.0068495e-07 -1.7216379e-06 2.2294607e-07)
(-5.4143056e-07 -1.6943947e-06 2.0541018e-07)
(1.124921e-06 -2.2263792e-07 -1.556582e-09)
(9.2818335e-07 -6.2229921e-07 6.4271292e-08)
(5.7041982e-07 -9.330355e-07 1.1268734e-07)
(1.1116726e-07 -1.1008107e-06 1.3326729e-07)
(-3.7919898e-07 -1.0765317e-06 1.2037537e-07)
(8.077879e-07 -1.4293959e-07 -2.3456723e-08)
(6.4843822e-07 -3.9270461e-07 2.8622121e-08)
(3.8754302e-07 -5.819726e-07 6.8199255e-08)
(5.718876e-08 -6.8612078e-07 8.8860543e-08)
(-2.7882504e-07 -6.8110523e-07 8.7567249e-08)
(6.320479e-07 -8.8049967e-08 -2.837341e-08)
(4.8915035e-07 -2.1522529e-07 9.4264059e-09)
(2.7700365e-07 -3.1764615e-07 4.2460698e-08)
(1.2034627e-08 -3.8171837e-07 6.6740181e-08)
(-2.3256512e-07 -3.9125603e-07 8.0135019e-08)
(5.5804903e-07 -3.0833223e-08 -2.2978026e-08)
(4.1873757e-07 -6.8096813e-08 3.7101107e-09)
(2.2099469e-07 -1.0112397e-07 3.1080316e-08)
(-1.6417175e-08 -1.2403675e-07 5.7058574e-08)
(-2.1642109e-07 -1.2957285e-07 7.9357218e-08)
(1.7217017e-06 -3.7649744e-07 -1.7018782e-09)
(1.4490137e-06 -1.0259299e-06 9.5710373e-08)
(9.2311417e-07 -1.5593098e-06 1.7245089e-07)
(2.0913731e-07 -1.8607584e-06 2.1014367e-07)
(-5.840991e-07 -1.8297648e-06 1.9895077e-07)
(1.1951205e-06 -2.522959e-07 -2.0729626e-08)
(9.8701391e-07 -6.7250199e-07 4.2184247e-08)
(6.115648e-07 -1.0015504e-06 9.49971e-08)
(1.2060173e-07 -1.1729611e-06 1.2387712e-07)
(-4.0864353e-07 -1.1373216e-06 1.2064274e-07)
(8.6045077e-07 -1.6731593e-07 -4.1524075e-08)
(6.9975922e-07 -4.2285776e-07 1.1763441e-08)
(4.2265501e-07 -6.2030211e-07 5.4200766e-08)
(7.3366079e-08 -7.2244531e-07 8.0451901e-08)
(-2.9234072e-07 -7.0012411e-07 8.7592818e-08)
(6.6651447e-07 -9.694781e-08 -5.0310817e-08)
(5.3402772e-07 -2.3402947e-07 -6.0073306e-09)
(3.1197725e-07 -3.410832e-07 2.9707322e-08)
(4.0779741e-08 -3.9954919e-07 5.7171978e-08)
(-2.2780187e-07 -3.9168311e-07 7.6502596e-08)
(5.7812996e-07 -3.1256735e-08 -4.8263274e-08)
(4.5551004e-07 -7.4727519e-08 -1.4540233e-08)
(2.5707091e-07 -1.0964123e-07 1.6230511e-08)
(2.276032e-08 -1.2955614e-07 4.6005471e-08)
(-1.9950125e-07 -1.2765057e-07 7.3491545e-08)
(1.8104644e-06 -3.9629845e-07 -4.0563829e-08)
(1.5329886e-06 -1.0859402e-06 4.2009005e-08)
(9.8048777e-07 -1.651671e-06 1.0926003e-07)
(2.2718484e-07 -1.9727596e-06 1.5131542e-07)
(-6.0874485e-07 -1.9421793e-06 1.5026336e-07)
(1.2572786e-06 -2.6246012e-07 -4.1991357e-08)
(1.0439101e-06 -7.0624615e-07 1.4949787e-08)
(6.5211269e-07 -1.0512856e-06 6.2295534e-08)
(1.3681289e-07 -1.2305024e-06 9.152912e-08)
(-4.2417691e-07 -1.1878896e-06 9.4146697e-08)
(9.0595101e-07 -1.7252078e-07 -4.0919453e-08)
(7.4416306e-07 -4.4089619e-07 1.0335826e-09)
(4.5623148e-07 -6.4726237e-07 3.6653618e-08)
(9.0580811e-08 -7.5282592e-07 5.8491013e-08)
(-2.9994691e-07 -7.2524537e-07 6.2839415e-08)
(6.9804125e-07 -9.4801013e-08 -3.3507589e-08)
(5.6916849e-07 -2.4153226e-07 -4.136627e-09)
(3.4018296e-07 -3.5561188e-07 2.0391558e-08)
(5.8829901e-08 -4.1615275e-07 3.6833924e-08)
(-2.284476e-07 -4.0533844e-07 4.2984244e-08)
(5.9910246e-07 -2.8798244e-08 -2.598948e-08)
(4.8323135e-07 -7.6631255e-08 -6.726671e-09)
(2.8154039e-07 -1.1459345e-07 1.05389e-08)
(4.0843858e-08 -1.351891e-07 2.5013866e-08)
(-1.9625897e-07 -1.3256492e-07 3.2148238e-08)
(1.8730645e-06 -3.9167881e-07 -6.5199287e-08)
(1.5988376e-06 -1.1078516e-06 -1.3297583e-08)
(1.0324206e-06 -1.6969109e-06 3.8023926e-08)
(2.5014064e-07 -2.0335822e-06 7.212464e-08)
(-6.1653108e-07 -2.0088165e-06 7.9610773e-08)
(1.3013435e-06 -2.5265152e-07 -5.0691565e-08)
(1.0913008e-06 -7.1347741e-07 -1.0760884e-08)
(6.8814413e-07 -1.0741568e-06 2.6604962e-08)
(1.524529e-07 -1.2657855e-06 4.8269712e-08)
(-4.2935189e-07 -1.2247455e-06 5.1385527e-08)
(9.3786336e-07 -1.5883216e-07 -3.1786658e-08)
(7.773323e-07 -4.4194418e-07 -4.0464969e-09)
(4.8011244e-07 -6.6220609e-07 1.858084e-08)
(9.9551875e-08 -7.7714051e-07 2.9127716e-08)
(-3.0477963e-07 -7.5128656e-07 2.8151431e-08)
(7.191375e-07 -8.2024236e-08 -1.1922102e-08)
(5.8792687e-07 -2.4179123e-07 -3.536205e-10)
(3.529478e-07 -3.6719502e-07 6.6761758e-09)
(6.3372426e-08 -4.3301975e-07 9.5254229e-09)
(-2.3211373e-07 -4.2236593e-07 7.1697487e-09)
(6.116591e-07 -2.3746979e-08 -5.4812535e-10)
(4.9203842e-07 -7.7318593e-08 -1.8020965e-09)
(2.8881145e-07 -1.1948881e-07 -2.8234811e-09)
(4.4369658e-08 -1.4136702e-07 -1.9601935e-09)
(-1.9845921e-07 -1.3847587e-07 -3.7839773e-09)
(1.9057577e-06 -3.6359597e-07 -6.2782778e-08)
(1.6362118e-06 -1.0917162e-06 -5.3608599e-08)
(1.06591e-06 -1.6918647e-06 -3.2660798e-08)
(2.6877168e-07 -2.0395441e-06 -1.2600357e-08)
(-6.0730261e-07 -2.0239524e-06 7.1817815e-09)
(1.3219603e-06 -2.2904749e-07 -3.7982629e-08)
(1.1212066e-06 -6.9699506e-07 -3.1820848e-08)
(7.1114329e-07 -1.0707287e-06 -1.8910219e-08)
(1.6159346e-07 -1.2734994e-06 -7.6130139e-09)
(-4.2427465e-07 -1.239349e-06 4.2713438e-09)
(9.5265538e-07 -1.3375132e-07 -1.8225801e-08)
(7.9453056e-07 -4.3048892e-07 -1.4691965e-08)
(4.894057e-07 -6.6719116e-07 -1.1316162e-08)
(1.001514e-07 -7.9157021e-07 -9.1930646e-09)
(-3.0331003e-07 -7.6946114e-07 -4.5740385e-09)
(7.2652751e-07 -6.3562676e-08 -5.1268005e-09)
(5.8776677e-07 -2.3928838e-07 -7.4657851e-09)
(3.50062e-07 -3.7701698e-07 -1.2489407e-08)
(5.9323473e-08 -4.4724123e-07 -1.5749825e-08)
(-2.3312359e-07 -4.3727483e-07 -1.5983024e-08)
(6.1336748e-07 -1.7427238e-08 -1.0953661e-09)
(4.80956e-07 -7.8079798e-08 -8.649357e-09)
(2.813823e-07 -1.2409139e-07 -1.6182246e-08)
(3.9883361e-08 -1.4667227e-07 -2.0222441e-08)
(-2.0090321e-07 -1.4351681e-07 -2.2927767e-08)
)
;

boundaryField
{
    movingWall
    {
        type            fixedValue;
        value           uniform (0 0 0);
    }
    CPLReceiveMD
    {
        type            fixedValue;
        value           nonuniform 0();
    }
    streamwiseIn
    {
        type            cyclic;
    }
    streamwiseOut
    {
        type            cyclic;
    }
    front
    {
        type            cyclic;
    }
    back
    {
        type            cyclic;
    }
    procBoundary25to7throughback
    {
        type            processorCyclic;
        value           nonuniform List<vector> 
25
(
(1.9115405e-06 -3.1542538e-07 -5.9266258e-08)
(1.3251679e-06 -2.0809455e-07 -2.7521544e-08)
(9.4954013e-07 -1.2597633e-07 -8.1423231e-09)
(7.1536508e-07 -6.4894208e-08 -2.2061856e-09)
(5.9523568e-07 -1.9716834e-08 -5.8492771e-09)
(1.6289595e-06 -1.0447002e-06 -8.9161185e-08)
(1.1103732e-06 -6.7456078e-07 -5.4082582e-08)
(7.8424193e-07 -4.1758911e-07 -3.3889363e-08)
(5.8056426e-07 -2.35751e-07 -2.3592734e-08)
(4.7695154e-07 -7.8504012e-08 -1.998146e-08)
(1.0734288e-06 -1.6422284e-06 -1.0796327e-07)
(7.1235196e-07 -1.0528121e-06 -7.2969826e-08)
(4.8561134e-07 -6.5578528e-07 -5.2397247e-08)
(3.4466376e-07 -3.7206544e-07 -3.7423809e-08)
(2.7723837e-07 -1.2318471e-07 -2.7930121e-08)
(2.8998322e-07 -1.9927099e-06 -1.0452537e-07)
(1.7563446e-07 -1.2623783e-06 -7.5204855e-08)
(1.06294e-07 -7.8527732e-07 -5.7444214e-08)
(5.987881e-08 -4.4405452e-07 -4.0989959e-08)
(3.7624136e-08 -1.458435e-07 -2.9335191e-08)
(-5.8632901e-07 -1.989972e-06 -6.6915331e-08)
(-4.1462022e-07 -1.2365014e-06 -5.6171572e-08)
(-2.9908451e-07 -7.7154093e-07 -4.8803761e-08)
(-2.2884467e-07 -4.4072564e-07 -3.4821446e-08)
(-1.946599e-07 -1.4542456e-07 -2.3642874e-08)
)
;
    }
    procBoundary25to16
    {
        type            processor;
        value           nonuniform List<vector> 
25
(
(1.5410964e-06 -2.8079807e-07 6.4630864e-08)
(1.2889101e-06 -8.4115522e-07 1.419483e-07)
(8.2880205e-07 -1.2997118e-06 1.8662305e-07)
(1.9946281e-07 -1.5688315e-06 2.0002127e-07)
(-5.0239305e-07 -1.5596288e-06 1.7180922e-07)
(1.0793535e-06 -1.9320704e-07 3.2307411e-08)
(8.7276999e-07 -5.7249015e-07 8.3073592e-08)
(5.425688e-07 -8.7401395e-07 1.1322925e-07)
(1.129137e-07 -1.0388756e-06 1.237286e-07)
(-3.5804886e-07 -1.0194787e-06 1.0913641e-07)
(7.7252766e-07 -1.404991e-07 1.7777558e-08)
(6.0810325e-07 -3.6801288e-07 4.9800948e-08)
(3.6241659e-07 -5.5007547e-07 7.4529675e-08)
(5.3998084e-08 -6.5591821e-07 8.6284485e-08)
(-2.6675463e-07 -6.5988376e-07 7.9972426e-08)
(5.9279617e-07 -9.7421071e-08 1.0321398e-08)
(4.6319361e-07 -2.0911887e-07 3.4425951e-08)
(2.5466347e-07 -3.0397264e-07 5.6226483e-08)
(3.1054192e-09 -3.6776212e-07 6.5431325e-08)
(-2.2188468e-07 -3.8349337e-07 5.7691079e-08)
(5.0932275e-07 -3.6645013e-08 8.3885974e-09)
(4.014517e-07 -6.9013536e-08 3.0676226e-08)
(2.0372245e-07 -9.8271376e-08 4.8668536e-08)
(-2.5516583e-08 -1.198911e-07 5.2702489e-08)
(-2.0268094e-07 -1.2689267e-07 3.9934163e-08)
)
;
    }
    procBoundary25to22
    {
        type            processor;
        value           nonuniform List<vector> 
25
(
(2.3494941e-06 -4.9414817e-07 9.4142789e-08)
(2.0247696e-06 -1.3776361e-06 2.4904595e-07)
(1.3537405e-06 -2.1495455e-06 3.7228532e-07)
(3.6844577e-07 -2.6352301e-06 4.2519421e-07)
(-7.8174215e-07 -2.6481824e-06 3.9051136e-07)
(2.5171519e-06 -5.5630169e-07 3.5038842e-08)
(2.1698263e-06 -1.5338382e-06 1.8980725e-07)
(1.4463933e-06 -2.3826641e-06 3.095519e-07)
(3.910567e-07 -2.9140683e-06 3.749989e-07)
(-8.4908009e-07 -2.9209775e-06 3.6842727e-07)
(2.6692589e-06 -5.7431257e-07 -2.6809987e-08)
(2.2992826e-06 -1.6313263e-06 9.6871537e-08)
(1.5389322e-06 -2.5519558e-06 1.9989665e-07)
(4.2732115e-07 -3.1285734e-06 2.6435289e-07)
(-8.8754355e-07 -3.1471474e-06 2.7319838e-07)
(2.7750618e-06 -5.5409069e-07 -8.3394047e-08)
(2.3965329e-06 -1.662664e-06 -4.9848178e-09)
(1.6138747e-06 -2.6269168e-06 6.6798711e-08)
(4.6435843e-07 -3.2308509e-06 1.1505412e-07)
(-8.9169828e-07 -3.2686734e-06 1.3315866e-07)
(2.8186668e-06 -5.0935983e-07 -1.1423606e-07)
(2.4494754e-06 -1.6402511e-06 -9.4972305e-08)
(1.6589711e-06 -2.6112812e-06 -7.3592729e-08)
(4.936811e-07 -3.2232823e-06 -4.8485303e-08)
(-8.6571325e-07 -3.2876279e-06 -1.4573103e-08)
)
;
    }
    procBoundary25to24
    {
        type            processor;
        value           nonuniform List<vector> 
25
(
(1.6290631e-06 2.8625595e-07 -5.1971283e-08)
(1.1540084e-06 1.8960029e-07 -5.1495699e-08)
(8.4955899e-07 1.0016846e-07 -5.9300988e-08)
(6.6953313e-07 3.4374451e-08 -6.4291902e-08)
(5.8543191e-07 5.7443156e-09 -6.5097103e-08)
(1.7353198e-06 2.9610151e-07 -9.5066593e-08)
(1.219871e-06 1.8874891e-07 -9.0173387e-08)
(8.8475093e-07 1.0574825e-07 -8.6399667e-08)
(6.8370663e-07 4.814707e-08 -7.2000675e-08)
(5.8856971e-07 1.3490691e-08 -5.5593669e-08)
(1.8191607e-06 3.2604007e-07 -1.0935382e-07)
(1.2737987e-06 1.9826722e-07 -9.1273236e-08)
(9.1883737e-07 1.1834117e-07 -7.6379005e-08)
(7.0474437e-07 6.5166661e-08 -5.6759653e-08)
(6.0307609e-07 2.2133381e-08 -4.0255812e-08)
(1.8733728e-06 3.6586669e-07 -1.085909e-07)
(1.3104089e-06 2.2172372e-07 -7.5442567e-08)
(9.4561381e-07 1.4026183e-07 -5.0750866e-08)
(7.2557425e-07 8.4260219e-08 -2.8839881e-08)
(6.2061868e-07 2.9980386e-08 -1.6067115e-08)
(1.8948297e-06 4.0499024e-07 -9.2084608e-08)
(1.3265966e-06 2.5610725e-07 -5.5645244e-08)
(9.619089e-07 1.6494386e-07 -2.6368735e-08)
(7.4237937e-07 9.9846344e-08 -3.6933628e-09)
(6.3668007e-07 3.4898941e-08 7.774065e-09)
)
;
    }
    procBoundary25to26
    {
        type            processor;
        value           nonuniform List<vector> 
25
(
(-1.2257363e-06 -1.3190947e-06 1.4124003e-07)
(-8.2474695e-07 -8.3820514e-07 8.2672621e-08)
(-5.7014478e-07 -5.3948691e-07 6.3274446e-08)
(-4.1575713e-07 -3.1936828e-07 6.0822988e-08)
(-3.4000829e-07 -1.0795072e-07 6.023826e-08)
(-1.3169148e-06 -1.4203218e-06 1.4282938e-07)
(-8.8544276e-07 -8.8120277e-07 7.8899187e-08)
(-6.1496775e-07 -5.4160366e-07 5.9330028e-08)
(-4.5189834e-07 -3.0675954e-07 6.1289489e-08)
(-3.7320137e-07 -1.0131229e-07 6.616759e-08)
(-1.3842963e-06 -1.509393e-06 1.1888344e-07)
(-9.320546e-07 -9.2170449e-07 7.082076e-08)
(-6.4937139e-07 -5.5709661e-07 4.6052107e-08)
(-4.776437e-07 -3.1251393e-07 3.2522067e-08)
(-3.9396282e-07 -1.0305739e-07 2.6055909e-08)
(-1.415999e-06 -1.5712358e-06 7.356688e-08)
(-9.5801779e-07 -9.5403409e-07 4.8171978e-08)
(-6.6897949e-07 -5.7990235e-07 2.5764598e-08)
(-4.9042557e-07 -3.2674899e-07 4.8494398e-09)
(-4.0223244e-07 -1.0777038e-07 -6.6044318e-09)
(-1.4132454e-06 -1.5981054e-06 1.7601712e-08)
(-9.612352e-07 -9.6950678e-07 7.1186522e-09)
(-6.7252922e-07 -6.0041915e-07 -3.4979481e-09)
(-4.8906116e-07 -3.4488452e-07 -1.2480769e-08)
(-3.9699926e-07 -1.1451008e-07 -1.642313e-08)
)
;
    }
}


// ************************************************************************* //
