/*--------------------------------*- C++ -*----------------------------------*\
| =========                 |                                                 |
| \\      /  F ield         | OpenFOAM: The Open Source CFD Toolbox           |
|  \\    /   O peration     | Version:  3.0.1                                 |
|   \\  /    A nd           | Web:      www.OpenFOAM.org                      |
|    \\/     M anipulation  |                                                 |
\*---------------------------------------------------------------------------*/
FoamFile
{
    version     2.0;
    format      ascii;
    class       volScalarField;
    location    "0.2";
    object      p;
}
// * * * * * * * * * * * * * * * * * * * * * * * * * * * * * * * * * * * * * //

dimensions      [0 2 -2 0 0 0 0];

internalField   nonuniform List<scalar> 
125
(
0.040023605
0.039171118
0.038318902
0.037608203
0.037143079
0.039758764
0.039162018
0.038571619
0.038090097
0.037788828
0.039604637
0.039173081
0.038751749
0.038417241
0.038220726
0.039530649
0.039195832
0.038872734
0.03862335
0.038487025
0.039503065
0.039211943
0.038933783
0.038723329
0.03861386
0.039977355
0.039207046
0.038426443
0.037769324
0.037336317
0.039736297
0.039192049
0.038643496
0.038188844
0.037899663
0.039599773
0.039199944
0.038800718
0.038477348
0.038281571
0.039533005
0.039217172
0.038905936
0.038660336
0.038519189
0.039504827
0.039227416
0.038957914
0.038748999
0.038631696
0.039939986
0.039222057
0.038494555
0.0378801
0.037474016
0.039718596
0.039205982
0.038686886
0.038255131
0.037979612
0.039594639
0.039212123
0.038828124
0.03851614
0.038326633
0.039532015
0.039226239
0.038923382
0.038683539
0.038544386
0.039503519
0.039234104
0.038970918
0.038765597
0.038648288
0.039918202
0.039218153
0.038515528
0.037925911
0.037539303
0.039707038
0.039203008
0.038697336
0.038280522
0.038017061
0.039588898
0.039209733
0.038832875
0.038530367
0.038349157
0.0395295
0.039225215
0.038926579
0.038692684
0.038558589
0.039503029
0.039234926
0.038974718
0.0387732
0.038659282
0.03991502
0.03919899
0.038487898
0.037900576
0.037522231
0.039706104
0.03918721
0.038675199
0.03826118
0.038003893
0.039589204
0.039198115
0.038817386
0.038518679
0.038343002
0.039533678
0.039219616
0.038918061
0.038686876
0.038557218
0.039511511
0.039233844
0.038970751
0.038770712
0.038659818
)
;

boundaryField
{
    movingWall
    {
        type            zeroGradient;
    }
    CPLReceiveMD
    {
        type            zeroGradient;
    }
    streamwiseIn
    {
        type            cyclic;
    }
    streamwiseOut
    {
        type            cyclic;
    }
    front
    {
        type            cyclic;
    }
    back
    {
        type            cyclic;
    }
    procBoundary15to6
    {
        type            processor;
        value           nonuniform List<scalar> 
25
(
0.040097663
0.039142699
0.038205621
0.037432746
0.036934326
0.039792299
0.039136381
0.038498112
0.037982632
0.037665194
0.039613835
0.039148385
0.038700986
0.038348838
0.038144787
0.03952613
0.039171362
0.03883415
0.038575556
0.038435123
0.039493047
0.039188846
0.038901421
0.038684513
0.038570725
)
;
    }
    procBoundary15to12
    {
        type            processor;
        value           nonuniform List<scalar> 
25
(
0.04046966
0.039219161
0.037973258
0.036921473
0.036215584
0.040367282
0.039260356
0.038139122
0.037185444
0.036543263
0.040279195
0.039274922
0.038248327
0.037372089
0.036783619
0.040209789
0.039258958
0.038285823
0.037457601
0.036907516
0.040162274
0.03920881
0.038244114
0.037432237
0.036898205
)
;
    }
    procBoundary15to16
    {
        type            processor;
        value           nonuniform List<scalar> 
25
(
0.037004239
0.037705673
0.038169918
0.038451001
0.038582139
0.037200108
0.037813288
0.038226047
0.038478756
0.038596368
0.037350496
0.037896582
0.038270523
0.038502289
0.038611238
0.037435221
0.037944152
0.038297146
0.038517302
0.038621406
0.037441231
0.037951216
0.038303222
0.038521094
0.038623193
)
;
    }
    procBoundary15to17throughstreamwiseIn
    {
        type            processorCyclic;
        value           nonuniform List<scalar> 
25
(
0.040748082
0.040252666
0.039953072
0.039793083
0.039724319
0.040606992
0.040175778
0.039913839
0.039771284
0.039707459
0.040501234
0.040121652
0.039887669
0.039756776
0.039695603
0.040437883
0.040091474
0.039874476
0.039751054
0.039692614
0.04041546
0.040080067
0.039873445
0.0397572
0.039702698
)
;
    }
    procBoundary15to24
    {
        type            processor;
        value           nonuniform List<scalar> 
25
(
0.039858292
0.039142752
0.038425713
0.037835851
0.037464592
0.03967753
0.039153222
0.038632573
0.038214095
0.037965272
0.039573331
0.039176275
0.038787641
0.038483096
0.038311046
0.039522697
0.039204188
0.03889614
0.03865882
0.038527221
0.039502998
0.039221708
0.038952813
0.038746558
0.038630692
)
;
    }
}


// ************************************************************************* //
