/*--------------------------------*- C++ -*----------------------------------*\
| =========                 |                                                 |
| \\      /  F ield         | OpenFOAM: The Open Source CFD Toolbox           |
|  \\    /   O peration     | Version:  3.0.1                                 |
|   \\  /    A nd           | Web:      www.OpenFOAM.org                      |
|    \\/     M anipulation  |                                                 |
\*---------------------------------------------------------------------------*/
FoamFile
{
    version     2.0;
    format      ascii;
    class       surfaceScalarField;
    location    "0.2";
    object      phi;
}
// * * * * * * * * * * * * * * * * * * * * * * * * * * * * * * * * * * * * * //

dimensions      [0 3 -1 0 0 0 0];

internalField   nonuniform List<scalar> 
300
(
0.0016187492
0.0010009772
0.00015346201
0.0019038618
0.00050917733
-2.2232322e-06
0.0018510745
-7.9301135e-05
-0.00015321194
0.0015027532
-0.0006660556
-0.00027668929
-0.0011593092
-0.0003601529
0.001127485
0.00061586562
9.1486988e-05
0.0013160611
0.00029498592
-9.1692705e-06
0.0012649006
-8.8527699e-05
-9.9642685e-05
0.0010098718
-0.00046684204
-0.00016566867
-0.00078264314
-0.00020315464
0.00080673808
0.00034124863
4.9447555e-05
0.00093294647
0.00014514117
-1.4223373e-05
0.0008869288
-8.3313913e-05
-6.4165512e-05
0.00069419273
-0.00030506914
-9.5803148e-05
-0.00048892786
-0.00010850101
0.00061091493
0.00014871372
2.5511681e-05
0.0007045618
5.5694579e-05
-1.11896e-05
0.00066523216
-4.9539446e-05
-3.733778e-05
0.00051026978
-0.00015067784
-5.1970798e-05
-0.00023450788
-5.3035688e-05
0.00051839059
1.7397149e-05
0.00059913675
-3.7870682e-06
0.00056385998
-2.0770461e-05
0.00042612696
-3.039156e-05
-2.6034449e-05
0.0014631121
0.0009387576
9.2259677e-05
0.0017529675
0.00050210821
-3.3285094e-06
0.0017276413
-2.5848461e-05
-0.00010459765
0.0014192312
-0.00055518551
-0.00019063869
-0.001002421
-0.00024868749
0.0010268462
0.00057387608
4.8158163e-05
0.0012255705
0.00028992339
-1.0344965e-05
0.001198852
-5.2985882e-05
-6.6984166e-05
0.00097220961
-0.00039696828
-0.00011297761
-0.00068796105
-0.0001416743
0.00074326142
0.00031725946
1.8719634e-05
0.00088289129
0.00014815243
-1.2692307e-05
0.00085514332
-5.6338435e-05
-4.1479961e-05
0.00068130765
-0.00026113908
-6.4040035e-05
-0.00043335674
-7.6749817e-05
0.00057469745
0.00014052154
5.2540496e-06
0.00067845824
6.3162112e-05
-1.017847e-05
0.00065043508
-3.2642e-05
-2.4666945e-05
0.00050913551
-0.00012879268
-3.6080124e-05
-0.00020739127
-4.0498741e-05
0.00049771038
2.67627e-06
0.00058252414
-7.3236536e-06
0.00055406522
-1.7742981e-05
0.00043024661
-2.5398196e-05
-2.6268698e-05
0.0013672466
0.00089439432
4.5830816e-06
0.0016516777
0.00049493321
-1.6924218e-05
0.0016415988
1.1584554e-05
-5.0405663e-05
0.0013612052
-0.00047763537
-8.4011584e-05
-0.00089533938
-0.00010649395
0.00096816566
0.00054411125
-6.5408029e-06
0.0011689408
0.00028751491
-1.445644e-05
0.0011529125
-2.755137e-05
-3.0430691e-05
0.00094358288
-0.00034810355
-4.9592472e-05
-0.00062302178
-6.212631e-05
0.00071190026
0.0003037222
-1.5150902e-05
0.00085412335
0.00015064765
-1.3714368e-05
0.00083263741
-3.9584382e-05
-1.9581903e-05
0.00066869172
-0.00023325644
-2.9596693e-05
-0.00039716695
-3.6735224e-05
0.00055926314
0.00013798589
-1.8772962e-05
0.00066399086
6.6018236e-05
-1.4749517e-05
0.00063907644
-2.5716419e-05
-1.7051874e-05
0.00050479798
-0.00011809151
-2.1854364e-05
-0.00019300685
-2.3693987e-05
0.00048752788
-1.9745139e-05
0.00057213577
-1.7511422e-05
0.00054647613
-1.9301085e-05
0.00042943612
-2.1123285e-05
-1.9677691e-05
0.0013459496
0.00088345855
-8.8606788e-05
0.0016183845
0.00049744547
-3.8645021e-05
0.0016083721
3.1353043e-05
2.7922196e-06
0.0013384086
-0.00044311207
2.8349384e-05
-0.00085110098
4.5128278e-05
0.00096034307
0.00053547241
-6.5477278e-05
0.001152996
0.00028823847
-2.3966088e-05
0.0011344178
-1.6730559e-05
4.6286429e-06
0.00093056252
-0.00032861715
1.8547186e-05
-0.0005977782
2.8338171e-05
0.00071320776
0.00030006034
-5.3577633e-05
0.00084835333
0.00014962102
-2.0545895e-05
0.00082285316
-3.706002e-05
-1.1064903e-06
0.00066142708
-0.0002257098
6.1079887e-06
-0.00038414242
1.1002544e-05
0.00056298915
0.00013700134
-4.9939622e-05
0.00066178482
6.3286276e-05
-2.6134143e-05
0.00063431646
-2.7925869e-05
-1.2951578e-05
0.00050290564
-0.0001173004
-6.4271183e-06
-0.00018882316
-2.7457098e-06
0.00048942737
-5.1370573e-05
0.00057040954
-3.3053068e-05
0.00054469555
-2.2647466e-05
0.00043069212
-1.4630273e-05
-8.9434314e-06
0.0013952102
0.00090672061
0.0016595368
0.00051246019
0.0016341235
3.376707e-05
0.0013559233
-0.00045242117
-0.00086814457
0.0010016706
0.00054743598
0.0011815701
0.00029176302
0.0011483943
-2.2323035e-05
0.00094043495
-0.00034088881
-0.00061405368
0.00074601432
0.00030363874
0.00086789217
0.00014389642
0.00083019502
-4.8999e-05
0.00066729729
-0.0002381676
-0.00039578497
0.00058638288
0.00013535904
0.00067505966
5.5968527e-05
0.00064110598
-3.7870521e-05
0.00050936859
-0.0001254397
-0.00019296343
0.0005071279
0.0005809924
0.00055330166
0.00044106161
)
;

boundaryField
{
    movingWall
    {
        type            calculated;
        value           uniform 0;
    }
    CPLReceiveMD
    {
        type            calculated;
        value           nonuniform 0();
    }
    streamwiseIn
    {
        type            cyclic;
        value           nonuniform 0();
    }
    streamwiseOut
    {
        type            cyclic;
        value           nonuniform 0();
    }
    front
    {
        type            cyclic;
        value           nonuniform 0();
    }
    back
    {
        type            cyclic;
        value           nonuniform 0();
    }
    procBoundary15to6
    {
        type            processor;
        value           nonuniform List<scalar> 
25
(
-0.00024481812
-4.0836484e-05
0.00014097089
0.00028705327
0.00038201356
-0.00013800149
-1.8087369e-05
8.7055776e-05
0.00016995269
0.00022051855
-7.497304e-05
-3.8476106e-06
5.7059851e-05
0.00010407858
0.00013204197
-3.7375896e-05
5.7465794e-06
4.1887613e-05
6.9973093e-05
8.8052277e-05
-1.9735279e-05
9.4590104e-06
3.4886141e-05
5.5868103e-05
7.2403612e-05
)
;
    }
    procBoundary15to12
    {
        type            processor;
        value           nonuniform List<scalar> 
25
(
-0.0016197046
-0.00084163712
4.4584427e-05
0.00091752279
0.001653019
-0.0014708024
-0.00081393332
-3.5467777e-05
0.00074265221
0.0014044114
-0.0013651958
-0.000796678
-9.5082e-05
0.0006139703
0.0012202733
-0.0012967954
-0.00078355895
-0.00012504271
0.00054672219
0.0011202118
-0.0012512844
-0.00075037078
-0.00010604753
0.00055278722
0.0011115678
)
;
    }
    procBoundary15to16
    {
        type            processor;
        value           nonuniform List<scalar> 
25
(
0.00090244962
0.00060284514
0.00041846621
0.00031738116
0.000274181
0.00088561598
0.00059944118
0.00041961259
0.00031880577
0.00027481496
0.00086101632
0.00059350604
0.00042061894
0.00032163797
0.0002780083
0.00083306582
0.0005842672
0.00042035966
0.00032536042
0.00028368155
0.00080738216
0.00056581263
0.00041326144
0.00032605556
0.0002862931
)
;
    }
    procBoundary15to17throughstreamwiseIn
    {
        type            processorCyclic;
        value           nonuniform List<scalar> 
25
(
-0.0010972628
-0.00074233194
-0.00051551148
-0.00037776083
-0.00031106121
-0.00092805735
-0.00064475211
-0.00045596939
-0.00034015254
-0.00028593166
-0.0008101209
-0.00058171443
-0.00041987598
-0.00031858389
-0.00027043144
-0.00074040467
-0.00055133588
-0.00040716339
-0.00031211829
-0.00026426338
-0.00070180789
-0.00053263937
-0.00040277167
-0.00030953664
-0.00025710323
)
;
    }
    procBoundary15to24
    {
        type            processor;
        value           nonuniform List<scalar> 
25
(
-1.4309501e-05
1.0511761e-05
5.468587e-05
9.1425998e-05
0.00010710503
-3.2985177e-05
-8.5923683e-06
2.8445952e-05
6.038337e-05
6.7167266e-05
-3.1220241e-05
-1.3725478e-05
1.3601877e-05
3.9568119e-05
5.0586017e-05
-2.2472497e-05
-1.3207707e-05
5.7453464e-06
2.565847e-05
3.8631406e-05
-1.6536754e-05
-1.0617555e-05
2.9578353e-06
1.9041273e-05
3.1768893e-05
)
;
    }
}


// ************************************************************************* //
