/*--------------------------------*- C++ -*----------------------------------*\
| =========                 |                                                 |
| \\      /  F ield         | OpenFOAM: The Open Source CFD Toolbox           |
|  \\    /   O peration     | Version:  3.0.1                                 |
|   \\  /    A nd           | Web:      www.OpenFOAM.org                      |
|    \\/     M anipulation  |                                                 |
\*---------------------------------------------------------------------------*/
FoamFile
{
    version     2.0;
    format      ascii;
    class       volVectorField;
    location    "0.2";
    object      U;
}
// * * * * * * * * * * * * * * * * * * * * * * * * * * * * * * * * * * * * * //

dimensions      [0 1 -1 0 0 0 0];

internalField   nonuniform List<vector> 
125
(
(3.3937277e-06 3.2723034e-06 4.9797562e-07)
(4.4041491e-06 1.6859474e-06 4.8637886e-08)
(4.6964308e-06 -1.5658216e-07 -3.675773e-07)
(4.1949132e-06 -1.9805001e-06 -7.0460081e-07)
(3.0090107e-06 -3.5156656e-06 -9.2769867e-07)
(2.3360171e-06 2.0188298e-06 2.8714685e-07)
(3.0545664e-06 1.0035228e-06 1.1595915e-08)
(3.2279719e-06 -2.1106775e-07 -2.3319473e-07)
(2.845642e-06 -1.4169784e-06 -4.1947612e-07)
(2.0179682e-06 -2.4276021e-06 -5.2978356e-07)
(1.6514802e-06 1.1956047e-06 1.5600582e-07)
(2.1742515e-06 5.4931674e-07 -1.2480718e-08)
(2.2759295e-06 -2.1567419e-07 -1.5125918e-07)
(1.9783789e-06 -9.6561397e-07 -2.4981106e-07)
(1.3928359e-06 -1.5898872e-06 -3.0101259e-07)
(1.2339601e-06 6.123091e-07 7.8936131e-08)
(1.6432875e-06 2.5058194e-07 -2.0735525e-08)
(1.7130411e-06 -1.6666384e-07 -9.8506334e-08)
(1.4714288e-06 -5.7020657e-07 -1.5216648e-07)
(1.0366569e-06 -9.0475366e-07 -1.7643427e-07)
(1.034129e-06 1.8584021e-07 4.641586e-08)
(1.39491e-06 6.9416897e-08 -1.6106325e-08)
(1.4545864e-06 -6.2107925e-08 -6.8619809e-08)
(1.2396544e-06 -1.8843083e-07 -1.0716836e-07)
(8.7751235e-07 -2.9320996e-07 -1.2306932e-07)
(2.9880331e-06 3.0094876e-06 3.0810666e-07)
(4.0208259e-06 1.6430917e-06 -6.4572527e-09)
(4.3531018e-06 1.0626055e-08 -3.2193414e-07)
(3.9358713e-06 -1.6232429e-06 -5.8395952e-07)
(2.883788e-06 -3.0093353e-06 -7.61304e-07)
(2.0884027e-06 1.8891892e-06 1.7521608e-07)
(2.8156599e-06 9.886858e-07 -2.3941256e-08)
(3.0320046e-06 -9.9598733e-08 -2.0803823e-07)
(2.7158045e-06 -1.1908552e-06 -3.481546e-07)
(1.9666203e-06 -2.1130861e-06 -4.3121002e-07)
(1.4974827e-06 1.1133256e-06 8.5780773e-08)
(2.032038e-06 5.468063e-07 -3.3189119e-08)
(2.1735608e-06 -1.3746076e-07 -1.3176928e-07)
(1.9223839e-06 -8.2325511e-07 -1.9969134e-07)
(1.3780013e-06 -1.4019999e-06 -2.3170905e-07)
(1.1413091e-06 5.7184306e-07 3.8783427e-08)
(1.5648736e-06 2.6363828e-07 -2.6322205e-08)
(1.6619431e-06 -1.1171326e-07 -7.7008742e-08)
(1.4512652e-06 -4.8781373e-07 -1.0977421e-07)
(1.0367283e-06 -8.0135107e-07 -1.1685978e-07)
(9.7680865e-07 1.7540667e-07 2.511454e-08)
(1.3481224e-06 7.8725817e-08 -1.3461417e-08)
(1.4215658e-06 -4.0934024e-08 -4.7203814e-08)
(1.2321218e-06 -1.6106067e-07 -6.9077922e-08)
(8.8304558e-07 -2.5941729e-07 -6.5350364e-08)
(2.7207088e-06 2.8224299e-06 1.2194695e-07)
(3.7741083e-06 1.6128504e-06 -2.5092764e-08)
(4.1189285e-06 1.3214206e-07 -1.9325653e-07)
(3.7555433e-06 -1.3653347e-06 -3.42449e-07)
(2.780742e-06 -2.6462197e-06 -4.4356753e-07)
(1.9361742e-06 1.7965039e-06 5.2477147e-08)
(2.6713121e-06 9.7679097e-07 -3.0941166e-08)
(2.9037586e-06 -2.0902889e-08 -1.2165787e-07)
(2.6224702e-06 -1.0327102e-06 -2.0224616e-07)
(1.9235108e-06 -1.8980071e-06 -2.5442569e-07)
(1.4130604e-06 1.0591721e-06 4.367103e-09)
(1.9567014e-06 5.469358e-07 -3.3076949e-08)
(2.1094273e-06 -8.4644694e-08 -7.6291715e-08)
(1.8784391e-06 -7.2723358e-07 -1.1670211e-07)
(1.3635098e-06 -1.275537e-06 -1.4154036e-07)
(1.0951205e-06 5.5166099e-07 -1.7184005e-08)
(1.5274954e-06 2.70323e-07 -3.1223874e-08)
(1.6295891e-06 -8.2092601e-08 -5.2137834e-08)
(1.4315778e-06 -4.3959623e-07 -7.2377475e-08)
(1.0348e-06 -7.3840298e-07 -8.0045192e-08)
(9.4497691e-07 1.7219451e-07 -2.1505869e-08)
(1.3225916e-06 8.2287902e-08 -3.1056437e-08)
(1.3989699e-06 -3.230492e-08 -4.6306068e-08)
(1.2215079e-06 -1.4774718e-07 -5.815116e-08)
(8.8591065e-07 -2.4171953e-07 -5.7385202e-08)
(2.6069107e-06 2.7231027e-06 -1.0550274e-07)
(3.7056225e-06 1.5995669e-06 -7.0296785e-08)
(4.0357456e-06 1.9434743e-07 -6.0555067e-08)
(3.6855603e-06 -1.2380233e-06 -6.9957527e-08)
(2.7172435e-06 -2.4656464e-06 -7.6113784e-08)
(1.888591e-06 1.7716094e-06 -9.0353444e-08)
(2.6415249e-06 9.8070162e-07 -4.8357992e-08)
(2.8606996e-06 1.736608e-08 -3.2611175e-08)
(2.5830366e-06 -9.6510831e-07 -3.8289362e-08)
(1.8957993e-06 -1.8110589e-06 -4.2229804e-08)
(1.3991833e-06 1.0436644e-06 -8.6560966e-08)
(1.9513792e-06 5.4652359e-07 -4.3180329e-08)
(2.0899357e-06 -6.7940726e-08 -2.6049806e-08)
(1.8571353e-06 -6.9338642e-07 -2.912086e-08)
(1.354197e-06 -1.2276194e-06 -3.0858045e-08)
(1.0921855e-06 5.459566e-07 -8.6637839e-08)
(1.5299197e-06 2.6564766e-07 -5.1614454e-08)
(1.6207895e-06 -8.1739401e-08 -3.7875349e-08)
(1.4233579e-06 -4.2927492e-07 -3.5362253e-08)
(1.0371377e-06 -7.1720505e-07 -2.9276456e-08)
(9.4005376e-07 1.7107249e-07 -8.9697158e-08)
(1.3233222e-06 7.8882482e-08 -6.4221457e-08)
(1.394471e-06 -3.5114472e-08 -5.3234157e-08)
(1.2210427e-06 -1.4684837e-07 -4.4747834e-08)
(8.9461036e-07 -2.3677013e-07 -2.9252053e-08)
(2.6207441e-06 2.694817e-06 -1.2957706e-07)
(3.8190559e-06 1.5764125e-06 -3.6005091e-08)
(4.1192678e-06 1.7320455e-07 7.1178242e-08)
(3.7399846e-06 -1.2575584e-06 1.5017803e-07)
(2.7067279e-06 -2.4749782e-06 1.9105759e-07)
(1.9172621e-06 1.8154457e-06 -1.2390804e-07)
(2.7290544e-06 1.0039074e-06 -4.1164979e-08)
(2.9138272e-06 1.3602372e-08 4.0978459e-08)
(2.6128516e-06 -9.9187357e-07 9.853801e-08)
(1.8853109e-06 -1.8527514e-06 1.2300087e-07)
(1.4352427e-06 1.0628876e-06 -1.0645388e-07)
(2.0172126e-06 5.4367933e-07 -4.3213781e-08)
(2.1234868e-06 -8.990888e-08 1.5383428e-08)
(1.8736309e-06 -7.2430647e-07 5.7064183e-08)
(1.3529256e-06 -1.2625836e-06 7.8689858e-08)
(1.1184416e-06 5.4847648e-07 -9.0722081e-08)
(1.5762579e-06 2.4924267e-07 -4.9616294e-08)
(1.6458413e-06 -1.0930818e-07 -9.4201567e-09)
(1.4401767e-06 -4.5524378e-07 2.3804227e-08)
(1.0462389e-06 -7.3680231e-07 4.8124057e-08)
(9.5297288e-07 1.690868e-07 -8.3963392e-08)
(1.3590546e-06 6.9646019e-08 -5.5391355e-08)
(1.4184436e-06 -4.7689052e-08 -2.5425543e-08)
(1.24549e-06 -1.5714892e-07 4.9235614e-09)
(9.1127327e-07 -2.4169923e-07 3.2462297e-08)
)
;

boundaryField
{
    movingWall
    {
        type            fixedValue;
        value           uniform (0 0 0);
    }
    CPLReceiveMD
    {
        type            fixedValue;
        value           nonuniform 0();
    }
    streamwiseIn
    {
        type            cyclic;
    }
    streamwiseOut
    {
        type            cyclic;
    }
    front
    {
        type            cyclic;
    }
    back
    {
        type            cyclic;
    }
    procBoundary15to6
    {
        type            processor;
        value           nonuniform List<vector> 
25
(
(3.7061282e-06 3.435596e-06 5.1002077e-07)
(4.8863789e-06 1.6645046e-06 6.8469951e-08)
(5.1063405e-06 -3.9037785e-07 -3.442192e-07)
(4.4959927e-06 -2.4153931e-06 -7.0148669e-07)
(3.2151881e-06 -4.1165855e-06 -9.5060539e-07)
(2.5348539e-06 2.231159e-06 2.9692299e-07)
(3.3360015e-06 1.0498044e-06 4.1770521e-08)
(3.4630766e-06 -3.1591685e-07 -2.0205975e-07)
(3.0123933e-06 -1.645645e-06 -4.1455107e-07)
(2.1226236e-06 -2.7397722e-06 -5.599572e-07)
(1.7802597e-06 1.3215363e-06 1.6121857e-07)
(2.339303e-06 5.7913772e-07 1.1653586e-08)
(2.4108912e-06 -2.7214917e-07 -1.3634379e-07)
(2.0721373e-06 -1.0905648e-06 -2.6488573e-07)
(1.4475709e-06 -1.7553492e-06 -3.5418393e-07)
(1.3199923e-06 6.8138987e-07 7.0836998e-08)
(1.742316e-06 2.6723592e-07 -2.2970711e-08)
(1.7933741e-06 -1.9436278e-07 -1.1510453e-07)
(1.5291932e-06 -6.3044787e-07 -1.9563241e-07)
(1.0676204e-06 -9.7927031e-07 -2.5824849e-07)
(1.0972628e-06 2.0787549e-07 2.4531366e-08)
(1.463158e-06 7.4069791e-08 -4.2159777e-08)
(1.5126278e-06 -7.0824022e-08 -1.06556e-07)
(1.2865713e-06 -2.0604158e-07 -1.6683386e-07)
(8.9974437e-07 -3.1274961e-07 -2.2332573e-07)
)
;
    }
    procBoundary15to12
    {
        type            processor;
        value           nonuniform List<vector> 
25
(
(4.8532681e-06 4.9399302e-06 7.1325528e-07)
(6.483452e-06 2.586862e-06 3.3008865e-08)
(6.8944195e-06 -1.0496692e-07 -6.3419864e-07)
(6.2047254e-06 -2.7768776e-06 -1.2116263e-06)
(4.5608406e-06 -5.0591994e-06 -1.6370338e-06)
(4.2601862e-06 4.5358083e-06 6.250896e-07)
(5.8145215e-06 2.5327137e-06 4.9155826e-08)
(6.2983391e-06 1.7776784e-07 -4.9676244e-07)
(5.7357658e-06 -2.1769382e-06 -9.6332001e-07)
(4.263224e-06 -4.1957536e-06 -1.300656e-06)
(3.861338e-06 4.2476541e-06 3.3886204e-07)
(5.3616e-06 2.5002048e-06 1.2583563e-08)
(5.8819436e-06 3.7706159e-07 -3.0537924e-07)
(5.4008319e-06 -1.7622529e-06 -5.8746574e-07)
(4.0668516e-06 -3.5945438e-06 -7.9811452e-07)
(3.7314082e-06 4.1044658e-06 3.7259434e-08)
(5.1702802e-06 2.4863141e-06 -1.1920149e-08)
(5.6982898e-06 4.6949461e-07 -7.3673667e-08)
(5.2430305e-06 -1.5741874e-06 -1.4606564e-07)
(3.9944518e-06 -3.322281e-06 -2.134713e-07)
(3.9153434e-06 4.1127529e-06 -4.2950413e-07)
(5.2506669e-06 2.4852137e-06 -1.3719093e-07)
(5.7477982e-06 4.5168516e-07 1.0605564e-07)
(5.2610343e-06 -1.6125253e-06 3.0136192e-07)
(4.0457784e-06 -3.3801978e-06 4.4925468e-07)
)
;
    }
    procBoundary15to16
    {
        type            processor;
        value           nonuniform List<vector> 
25
(
(1.3334028e-06 -4.5233725e-06 -1.0360009e-06)
(8.7643977e-07 -3.0331532e-06 -5.7547942e-07)
(6.1196819e-07 -1.946925e-06 -3.193806e-07)
(4.87289e-07 -1.0849169e-06 -1.8305861e-07)
(4.4763097e-07 -3.4694784e-07 -1.2386716e-07)
(1.3622991e-06 -3.9198466e-06 -8.1222824e-07)
(9.0532186e-07 -2.6966419e-06 -4.4261197e-07)
(6.3679932e-07 -1.7531469e-06 -2.2901748e-07)
(5.0099531e-07 -9.8216462e-07 -1.1163108e-07)
(4.4808097e-07 -3.1412382e-07 -6.0679622e-08)
(1.3720979e-06 -3.5086756e-06 -5.0899344e-07)
(9.2384163e-07 -2.4499425e-06 -2.7306709e-07)
(6.5426429e-07 -1.6159442e-06 -1.4050643e-07)
(5.1166585e-07 -9.1659145e-07 -7.1968019e-08)
(4.5565389e-07 -2.9601799e-07 -4.6586377e-08)
(1.3633319e-06 -3.3366757e-06 -1.4397162e-07)
(9.2862883e-07 -2.3281549e-06 -7.6489218e-08)
(6.6441612e-07 -1.5520479e-06 -3.9705055e-08)
(5.2606178e-07 -8.8825043e-07 -2.3923396e-08)
(4.7579968e-07 -2.8875085e-07 -1.9385214e-08)
(1.3362823e-06 -3.4180259e-06 3.2219942e-07)
(9.0544052e-07 -2.3456759e-06 1.816064e-07)
(6.6019628e-07 -1.5633783e-06 1.0729223e-07)
(5.4157003e-07 -8.9627071e-07 7.3387224e-08)
(5.0058269e-07 -2.9147697e-07 6.1639797e-08)
)
;
    }
    procBoundary15to17throughstreamwiseIn
    {
        type            processorCyclic;
        value           nonuniform List<vector> 
25
(
(1.678394e-06 4.2031984e-06 7.6673303e-07)
(1.1249883e-06 2.7457703e-06 4.5804711e-07)
(7.5989502e-07 1.6513738e-06 2.7029627e-07)
(5.27456e-07 8.6781847e-07 1.5794769e-07)
(4.1295126e-07 2.6907714e-07 1.0434786e-07)
(1.3655803e-06 3.8148751e-06 6.6656171e-07)
(9.4316039e-07 2.4792362e-06 3.7590169e-07)
(6.4537955e-07 1.4939e-06 2.052307e-07)
(4.5230113e-07 7.8420443e-07 1.1251745e-07)
(3.6300042e-07 2.4307221e-07 7.5690708e-08)
(1.1424865e-06 3.5380142e-06 3.5602965e-07)
(8.1311409e-07 2.2844393e-06 1.6887055e-07)
(5.6453856e-07 1.3879896e-06 6.5222429e-08)
(4.0339805e-07 7.3830218e-07 1.7899757e-08)
(3.3137437e-07 2.3228474e-07 5.6984504e-09)
(1.0220966e-06 3.4423842e-06 2.9667891e-08)
(7.4899347e-07 2.1884289e-06 -2.9445869e-08)
(5.3100189e-07 1.3429292e-06 -6.5362599e-08)
(3.8596018e-07 7.2467228e-07 -7.4935598e-08)
(3.1750044e-07 2.3086514e-07 -7.2217433e-08)
(1.0060508e-06 3.5744938e-06 -4.2457889e-07)
(7.4567051e-07 2.1894088e-06 -2.5797963e-07)
(5.3622153e-07 1.3424999e-06 -1.7957283e-07)
(3.8629825e-07 7.3140804e-07 -1.4062351e-07)
(3.0584962e-07 2.3496012e-07 -1.2619221e-07)
)
;
    }
    procBoundary15to24
    {
        type            processor;
        value           nonuniform List<vector> 
25
(
(2.9954845e-06 3.0286988e-06 -2.5095322e-07)
(3.9063778e-06 1.6955929e-06 -5.68312e-08)
(4.2219287e-06 1.2927025e-07 1.5682021e-07)
(3.8054396e-06 -1.4408472e-06 3.5183884e-07)
(2.8892649e-06 -2.7919002e-06 4.888438e-07)
(2.1054057e-06 1.7947326e-06 -1.7063258e-07)
(2.8064114e-06 9.7349293e-07 -6.0057743e-08)
(3.0004026e-06 -3.8428734e-08 7.0833613e-08)
(2.6650591e-06 -1.0582222e-06 1.9974894e-07)
(1.9788677e-06 -1.9234267e-06 2.8602562e-07)
(1.5355424e-06 1.0768504e-06 -1.0764708e-07)
(2.0732165e-06 5.3807226e-07 -4.6356079e-08)
(2.1902136e-06 -1.1833936e-07 3.5027089e-08)
(1.9204417e-06 -7.6812022e-07 1.218699e-07)
(1.4044251e-06 -1.3024962e-06 1.8892372e-07)
(1.1831927e-06 5.6839177e-07 -6.0572234e-08)
(1.6112216e-06 2.5342214e-07 -2.6512952e-08)
(1.69421e-06 -1.2258345e-07 2.4963759e-08)
(1.4809021e-06 -4.8143394e-07 8.7259849e-08)
(1.0867207e-06 -7.634335e-07 1.4581205e-07)
(1.0108546e-06 1.7777245e-07 -3.2862197e-08)
(1.38186e-06 7.3060771e-08 -1.196833e-08)
(1.4547859e-06 -5.1150026e-08 2.7100485e-08)
(1.2789305e-06 -1.6574149e-07 8.0777042e-08)
(9.5132659e-07 -2.5242703e-07 1.3343813e-07)
)
;
    }
}


// ************************************************************************* //
