/*--------------------------------*- C++ -*----------------------------------*\
| =========                 |                                                 |
| \\      /  F ield         | OpenFOAM: The Open Source CFD Toolbox           |
|  \\    /   O peration     | Version:  3.0.1                                 |
|   \\  /    A nd           | Web:      www.OpenFOAM.org                      |
|    \\/     M anipulation  |                                                 |
\*---------------------------------------------------------------------------*/
FoamFile
{
    version     2.0;
    format      ascii;
    class       surfaceScalarField;
    location    "0.2";
    object      phi;
}
// * * * * * * * * * * * * * * * * * * * * * * * * * * * * * * * * * * * * * //

dimensions      [0 3 -1 0 0 0 0];

internalField   nonuniform List<scalar> 
300
(
9.0918834e-05
-0.0019298886
6.8703213e-05
-0.00090746131
-0.0019977266
4.3160012e-05
-0.001820985
-0.0017104723
6.4580121e-06
-0.0024206062
-0.0010729176
-1.9599429e-05
-0.00019204471
-4.4443019e-05
2.388531e-05
-0.0012041746
2.3728714e-05
-0.00061925435
-0.0012174153
2.3465289e-05
-0.0011823454
-0.0010249008
1.2892083e-05
-0.0015391822
-0.00063606693
-1.8522629e-06
-0.00012266377
-2.4040992e-05
1.1179869e-05
-0.00070497448
1.9494601e-06
-0.00042605021
-0.00068536869
6.8967649e-06
-0.00079303016
-0.0005626394
8.4224354e-06
-0.0010257315
-0.0003497144
9.4784095e-07
-8.7376814e-05
-1.7024395e-05
3.0913193e-05
-0.00032193559
-5.8496489e-06
-0.00030304735
-0.00030749183
-9.9676706e-06
-0.00058001082
-0.00024966071
-8.3648946e-06
-0.0007633818
-0.00015824786
-8.5554104e-06
-4.9513522e-05
-1.2011061e-05
4.5239722e-05
-1.2187722e-05
-0.00024518417
-2.1309409e-05
-0.00048851135
-1.9687398e-05
-0.00065413816
-1.3677703e-05
-6.6565702e-06
6.5524376e-05
-0.0019748748
-0.00012558304
-0.00094422066
-0.0020173855
-0.00012330124
-0.0018469772
-0.0017038678
-9.5460325e-05
-0.0024453808
-0.0010549611
-4.0210879e-05
-0.00017164908
4.0903974e-05
2.3771253e-05
-0.0012255895
-8.9951802e-05
-0.00062994027
-0.0012339431
-7.9413956e-05
-0.0011973317
-0.001029275
-5.668313e-05
-0.0015615769
-0.00063302231
-2.221043e-05
-0.0001155454
1.906318e-05
1.6000016e-05
-0.00071149616
-7.4821378e-05
-0.00042473965
-0.00070218908
-6.2139981e-05
-0.00080068968
-0.00057923672
-4.273088e-05
-0.0010440407
-0.00035881102
-1.8436329e-05
-8.1612298e-05
5.376643e-06
2.5580925e-05
-0.00032795443
-6.750244e-05
-0.00030154484
-0.00031871137
-5.8449514e-05
-0.00058012129
-0.0002607732
-4.0918372e-05
-0.00076678584
-0.00016320747
-1.8036241e-05
-4.2909461e-05
5.6285845e-06
3.4776914e-05
-6.3788047e-05
-0.00024356351
-5.6008645e-05
-0.00048240945
-3.9277642e-05
-0.00064618153
-1.5889627e-05
1.0807139e-05
6.7781788e-05
-0.0019391653
-0.0003071088
-0.00091627529
-0.0019733795
-0.0002802497
-0.0017916383
-0.001664888
-0.00020300577
-0.0023651385
-0.0010366604
-7.0015708e-05
-0.00019297639
0.00010532647
3.4243392e-05
-0.0012105974
-0.00019159102
-0.000607151
-0.0012166001
-0.00017277962
-0.001162848
-0.0010152002
-0.00012267659
-0.0015203147
-0.00062909952
-4.2469257e-05
-0.00012909407
5.3583753e-05
2.8777656e-05
-0.0007044066
-0.00013563062
-0.00040529612
-0.00069847449
-0.00012058783
-0.0007763959
-0.00057740514
-8.47966e-05
-0.0010201874
-0.00035840647
-3.099627e-05
-8.140193e-05
2.9410988e-05
3.5011948e-05
-0.00032414725
-0.00011049942
-0.0002839878
-0.00031628935
-9.623782e-05
-0.0005572297
-0.00025916617
-6.5537936e-05
-0.00074306017
-0.00016109048
-2.1337762e-05
-3.7750052e-05
2.8406507e-05
4.2830979e-05
-9.9130395e-05
-0.00022680959
-8.3798213e-05
-0.00045900515
-5.5021673e-05
-0.00061941153
-1.4105549e-05
3.2691283e-05
9.4788802e-05
-0.0018235877
-0.00041465626
-0.00083897651
-0.0018657236
-0.00038546081
-0.0016586657
-0.00158432
-0.00027259459
-0.0021907097
-0.0010087997
-8.7040061e-05
-0.00024445172
0.00013495372
5.3263025e-05
-0.0011547462
-0.00024943413
-0.00055704308
-0.0011643623
-0.00023284624
-0.0010826309
-0.00097718224
-0.00016397393
-0.0014242631
-0.00061742452
-5.1391682e-05
-0.0001530623
8.267171e-05
4.4123632e-05
-0.00067927976
-0.00016784365
-0.00036947086
-0.00067408622
-0.00015789396
-0.00072256263
-0.00055807572
-0.00011108773
-0.00095971242
-0.00034866161
-3.4283713e-05
-8.2312188e-05
5.8100564e-05
4.9574528e-05
-0.00031271741
-0.00013196049
-0.00025322251
-0.00030385568
-0.00011902041
-0.00051299122
-0.00024864594
-8.0286543e-05
-0.00069302319
-0.00015384359
-1.9317043e-05
-3.3437724e-05
5.3778516e-05
5.8378446e-05
-0.00011775793
-0.0001979598
-9.9331368e-05
-0.00041805757
-6.3454646e-05
-0.00057210894
-9.552699e-06
5.4402468e-05
0.00012407538
-0.0016578239
-0.00072610453
-0.0017129196
-0.0014732268
-0.0014754824
-0.0019670198
-0.00097291123
-0.00029680697
6.9466787e-05
-0.0010732059
-0.00048821338
-0.0010892937
-0.00097005265
-0.00092422956
-0.0012902019
-0.00060031752
-0.00017755872
5.3738031e-05
-0.00064346757
-0.00032277089
-0.00063516719
-0.00064582108
-0.00052749408
-0.00086722453
-0.00033436379
-8.7846892e-05
6.2200989e-05
-0.00029862162
-0.00021483154
-0.00028429505
-0.00045257237
-0.00023227147
-0.00061971019
-0.00014478587
-3.4233644e-05
7.6449194e-05
-0.00016275377
-0.00036498999
-0.00050786053
)
;

boundaryField
{
    movingWall
    {
        type            calculated;
        value           uniform 0;
    }
    CPLReceiveMD
    {
        type            calculated;
        value           nonuniform 0();
    }
    streamwiseIn
    {
        type            cyclic;
        value           nonuniform 0();
    }
    streamwiseOut
    {
        type            cyclic;
        value           nonuniform 0();
    }
    front
    {
        type            cyclic;
        value           nonuniform 0();
    }
    back
    {
        type            cyclic;
        value           nonuniform 0();
    }
    procBoundary7to4
    {
        type            processor;
        value           nonuniform List<scalar> 
25
(
0.0030141187
0.0031341457
0.0026669365
0.001660971
0.00030840711
0.0031036626
0.0032170042
0.0027354298
0.0016924339
0.00029190356
0.0030132944
0.0031270136
0.0026638682
0.0016556452
0.00029707927
0.0027810294
0.0028981176
0.0024839134
0.0015712331
0.00032534082
0.002465661
0.0025871062
0.0022370702
0.0014526962
0.00036727442
)
;
    }
    procBoundary7to6
    {
        type            processor;
        value           nonuniform List<scalar> 
25
(
-0.0010720479
-0.00070569779
-0.00048374218
-0.00035562
-0.00029252123
-0.0010489321
-0.00068808479
-0.00047557476
-0.00035624132
-0.00029744149
-0.0010331166
-0.00067460668
-0.00046422973
-0.00034798606
-0.00029412601
-0.0010084786
-0.00065736468
-0.00045037652
-0.00033716056
-0.00028673494
-0.00097240491
-0.00063589647
-0.00043424692
-0.00032410761
-0.00027552742
)
;
    }
    procBoundary7to8
    {
        type            processor;
        value           nonuniform List<scalar> 
25
(
-0.0025605762
-0.0016782294
-0.001140008
-0.00082939739
-0.0006837355
-0.0025666916
-0.0016711477
-0.0011367377
-0.00083329017
-0.00069184945
-0.0025105725
-0.0016305074
-0.0011072893
-0.00081336712
-0.00067927065
-0.0023851159
-0.0015546811
-0.001056283
-0.0007758
-0.00064868974
-0.0022183685
-0.0014698542
-0.0010020373
-0.00072949521
-0.00060169162
)
;
    }
    procBoundary7to16
    {
        type            processor;
        value           nonuniform List<scalar> 
25
(
-0.00044833536
-0.00041272404
-0.00030409148
-0.00013457817
4.8026322e-05
-0.00025296517
-0.00022582835
-0.00015870472
-6.0066033e-05
3.4563373e-05
-0.00014784215
-0.00013141188
-8.9182432e-05
-2.6089381e-05
3.4394467e-05
-9.4771857e-05
-8.5565699e-05
-5.6676104e-05
-1.1392765e-05
3.7653275e-05
-7.3822685e-05
-6.7838588e-05
-4.430541e-05
-6.2312217e-06
3.9154411e-05
)
;
    }
    procBoundary7to25throughfront
    {
        type            processorCyclic;
        value           nonuniform List<scalar> 
25
(
-0.00029140957
-0.00017032466
-9.6801285e-05
-4.3551239e-05
-1.0573961e-05
-0.00024581351
-0.00012836328
-6.971744e-05
-3.3394976e-05
-1.0373765e-05
-0.00017636491
-8.1733189e-05
-3.733259e-05
-1.292569e-05
3.4103987e-07
-7.0053008e-05
-2.8398441e-05
-4.8836386e-06
1.1227102e-05
1.9647195e-05
5.7818894e-05
2.018302e-05
1.5862305e-05
3.0874256e-05
4.4937614e-05
)
;
    }
}


// ************************************************************************* //
