/*--------------------------------*- C++ -*----------------------------------*\
| =========                 |                                                 |
| \\      /  F ield         | OpenFOAM: The Open Source CFD Toolbox           |
|  \\    /   O peration     | Version:  3.0.1                                 |
|   \\  /    A nd           | Web:      www.OpenFOAM.org                      |
|    \\/     M anipulation  |                                                 |
\*---------------------------------------------------------------------------*/
FoamFile
{
    version     2.0;
    format      ascii;
    class       volVectorField;
    location    "0.2";
    object      U;
}
// * * * * * * * * * * * * * * * * * * * * * * * * * * * * * * * * * * * * * //

dimensions      [0 1 -1 0 0 0 0];

internalField   nonuniform List<vector> 
125
(
(1.457031e-06 -6.1788255e-06 4.5007738e-07)
(-1.0173654e-06 -6.4124999e-06 3.6102012e-07)
(-3.4073866e-06 -5.4678209e-06 2.2798057e-07)
(-5.3007061e-06 -3.411628e-06 6.2439188e-08)
(-6.2277064e-06 -6.1831245e-07 -1.2772354e-07)
(9.1438638e-07 -3.9168292e-06 2.4338198e-07)
(-7.4205512e-07 -4.0171434e-06 1.8965884e-07)
(-2.2502248e-06 -3.4164952e-06 1.1780404e-07)
(-3.4012997e-06 -2.132701e-06 3.2375292e-08)
(-4.0226647e-06 -3.8902134e-07 -5.4830624e-08)
(6.2039858e-07 -2.3859752e-06 1.2367444e-07)
(-5.1703147e-07 -2.3773487e-06 9.5563347e-08)
(-1.5229442e-06 -1.9828809e-06 5.6638476e-08)
(-2.2732323e-06 -1.2304616e-06 6.5926209e-09)
(-2.7077314e-06 -2.6083332e-07 -4.0927128e-08)
(4.8446767e-07 -1.2833492e-06 4.7101744e-08)
(-3.3896093e-07 -1.2407563e-06 2.9086349e-08)
(-1.1033377e-06 -1.0150027e-06 5.4361475e-09)
(-1.6792522e-06 -6.3455109e-07 -2.4851478e-08)
(-1.9913874e-06 -1.7082016e-07 -5.3505582e-08)
(4.2314707e-07 -4.0225508e-07 -3.9392792e-09)
(-2.4898724e-07 -3.8430636e-07 -1.3886919e-08)
(-9.1672639e-07 -3.1202523e-07 -2.5032217e-08)
(-1.4287241e-06 -1.9776265e-07 -4.1546798e-08)
(-1.6730736e-06 -6.1875826e-08 -6.3089422e-08)
(1.396164e-06 -6.3470544e-06 -7.1627597e-08)
(-1.0951002e-06 -6.540926e-06 -1.0044646e-07)
(-3.4864182e-06 -5.5457395e-06 -1.1191114e-07)
(-5.3640495e-06 -3.4293572e-06 -7.5674655e-08)
(-6.2659065e-06 -5.7342018e-07 -4.8586848e-09)
(8.9206437e-07 -3.9995494e-06 -8.3127231e-08)
(-7.5557563e-07 -4.0624171e-06 -7.0094647e-08)
(-2.2825774e-06 -3.4139779e-06 -5.5248312e-08)
(-3.4481349e-06 -2.1069162e-06 -3.0978099e-08)
(-4.0415756e-06 -3.5561231e-07 -7.4202721e-09)
(6.160753e-07 -2.420825e-06 -9.108436e-08)
(-5.0952868e-07 -2.4191762e-06 -6.928029e-08)
(-1.5309172e-06 -2.0092769e-06 -4.3456157e-08)
(-2.305684e-06 -1.2381481e-06 -2.2617987e-08)
(-2.7264051e-06 -2.4473724e-07 -1.576174e-08)
(4.7844133e-07 -1.2991475e-06 -9.0459956e-08)
(-3.4402763e-07 -1.2758358e-06 -8.573849e-08)
(-1.1015493e-06 -1.0495866e-06 -6.1918027e-08)
(-1.6835952e-06 -6.5197664e-07 -3.3410226e-08)
(-2.0004925e-06 -1.5508995e-07 -8.0673046e-09)
(4.1615303e-07 -4.0989162e-07 -9.3346035e-08)
(-2.6026418e-07 -3.9832692e-07 -9.6698208e-08)
(-9.0704565e-07 -3.2587882e-07 -7.3719043e-08)
(-1.4108648e-06 -2.0389213e-07 -3.6855257e-08)
(-1.6730033e-06 -5.3527045e-08 6.752698e-09)
(1.3790236e-06 -6.1896035e-06 -5.4073265e-07)
(-1.0576489e-06 -6.3736788e-06 -5.044979e-07)
(-3.3826148e-06 -5.4080384e-06 -3.7325262e-07)
(-5.1936537e-06 -3.3611951e-06 -1.3802951e-07)
(-6.094508e-06 -6.0717905e-07 1.8258836e-07)
(8.881278e-07 -3.9362859e-06 -3.5192665e-07)
(-7.141762e-07 -3.9859773e-06 -3.1532155e-07)
(-2.2111082e-06 -3.3480402e-06 -2.2434517e-07)
(-3.3534717e-06 -2.0796443e-06 -8.099668e-08)
(-3.9391592e-06 -3.9992439e-07 9.0711927e-08)
(6.1772604e-07 -2.3933079e-06 -2.6343192e-07)
(-4.6940327e-07 -2.3929926e-06 -2.2850072e-07)
(-1.4762819e-06 -1.9895506e-06 -1.5948019e-07)
(-2.2455378e-06 -1.2328937e-06 -6.1836005e-08)
(-2.6597615e-06 -2.6148036e-07 4.3469653e-08)
(4.7984887e-07 -1.2856302e-06 -2.232864e-07)
(-3.1041901e-07 -1.2682005e-06 -1.9345313e-07)
(-1.0510095e-06 -1.0452907e-06 -1.3310213e-07)
(-1.6254014e-06 -6.4880684e-07 -4.9228561e-08)
(-1.9459438e-06 -1.4831306e-07 4.2543251e-08)
(4.2209274e-07 -4.0516378e-07 -2.0422104e-07)
(-2.2936025e-07 -3.9529606e-07 -1.7482703e-07)
(-8.5688344e-07 -3.23855e-07 -1.1789711e-07)
(-1.3482524e-06 -2.0123049e-07 -3.7505936e-08)
(-1.6238612e-06 -4.7070378e-08 5.4363716e-08)
(1.3818698e-06 -5.7549947e-06 -9.0216003e-07)
(-9.2762022e-07 -5.9532784e-06 -8.3236186e-07)
(-3.1199498e-06 -5.0827897e-06 -5.9471765e-07)
(-4.8082085e-06 -3.2213924e-06 -1.9654293e-07)
(-5.7184948e-06 -7.0727883e-07 3.0019602e-07)
(8.9018557e-07 -3.7222487e-06 -5.5078032e-07)
(-6.2799415e-07 -3.7864199e-06 -5.0719702e-07)
(-2.0482526e-06 -3.2002054e-06 -3.5849567e-07)
(-3.1330778e-06 -2.0307226e-06 -1.1747208e-07)
(-3.7243739e-06 -4.9473102e-07 1.7028124e-07)
(6.1947342e-07 -2.2921848e-06 -3.7913624e-07)
(-4.0557696e-07 -2.2973078e-06 -3.4821316e-07)
(-1.3642525e-06 -1.9180339e-06 -2.4505477e-07)
(-2.1027341e-06 -1.2063799e-06 -8.1904041e-08)
(-2.5204486e-06 -2.9290593e-07 1.091939e-07)
(4.8447348e-07 -1.2399908e-06 -3.0304013e-07)
(-2.5384336e-07 -1.2222201e-06 -2.6916084e-07)
(-9.5732477e-07 -1.0080556e-06 -1.8279743e-07)
(-1.5079499e-06 -6.2768202e-07 -5.2062955e-08)
(-1.8366999e-06 -1.4420611e-07 1.008226e-07)
(4.3228907e-07 -3.9088259e-07 -2.710748e-07)
(-1.7394025e-07 -3.7976039e-07 -2.2910557e-07)
(-7.6972456e-07 -3.1072595e-07 -1.4916907e-07)
(-1.2386039e-06 -1.9220406e-07 -3.1719864e-08)
(-1.5270373e-06 -4.1716742e-08 1.0514151e-07)
(1.3732639e-06 -5.1537084e-06 -1.0831743e-06)
(-7.5020657e-07 -5.3735182e-06 -9.9907237e-07)
(-2.7467958e-06 -4.6383291e-06 -7.2241218e-07)
(-4.29874e-06 -3.0286971e-06 -2.7873497e-07)
(-5.2322636e-06 -8.2579592e-07 2.2766644e-07)
(8.8346323e-07 -3.4132622e-06 -6.2819979e-07)
(-5.2189156e-07 -3.5018286e-06 -5.7370299e-07)
(-1.8213833e-06 -2.9983774e-06 -4.0369678e-07)
(-2.8246948e-06 -1.9650054e-06 -1.3983214e-07)
(-3.4510103e-06 -5.9092651e-07 1.4550561e-07)
(6.1120754e-07 -2.1455678e-06 -3.9407879e-07)
(-3.3532179e-07 -2.1549564e-06 -3.6168916e-07)
(-1.2099727e-06 -1.8138524e-06 -2.5049402e-07)
(-1.8912892e-06 -1.1674846e-06 -7.5732276e-08)
(-2.3371829e-06 -3.3093901e-07 1.1541052e-07)
(4.8385584e-07 -1.1776441e-06 -2.8294006e-07)
(-1.901763e-07 -1.149174e-06 -2.5543297e-07)
(-8.3391158e-07 -9.4947812e-07 -1.7147228e-07)
(-1.3417814e-06 -5.9867114e-07 -3.8973356e-08)
(-1.6880463e-06 -1.5237635e-07 1.1407014e-07)
(4.4079319e-07 -3.7327293e-07 -2.3893752e-07)
(-1.0745452e-07 -3.5532052e-07 -2.0798383e-07)
(-6.5949773e-07 -2.9029581e-07 -1.3523446e-07)
(-1.0939418e-06 -1.8093e-07 -2.0956273e-08)
(-1.3898601e-06 -4.2755746e-08 1.2023829e-07)
)
;

boundaryField
{
    movingWall
    {
        type            fixedValue;
        value           uniform (0 0 0);
    }
    CPLReceiveMD
    {
        type            fixedValue;
        value           nonuniform 0();
    }
    streamwiseIn
    {
        type            cyclic;
    }
    streamwiseOut
    {
        type            cyclic;
    }
    front
    {
        type            cyclic;
    }
    back
    {
        type            cyclic;
    }
    procBoundary7to4
    {
        type            processor;
        value           nonuniform List<vector> 
25
(
(2.2725559e-06 -9.7236756e-06 7.4704943e-07)
(-1.4530597e-06 -1.0197025e-05 6.589216e-07)
(-5.2510966e-06 -8.7738649e-06 4.1186456e-07)
(-8.2508081e-06 -5.5013133e-06 7.0590863e-08)
(-9.6817948e-06 -1.0140564e-06 -2.8661249e-07)
(2.2771561e-06 -9.9890309e-06 -7.2349197e-08)
(-1.5568905e-06 -1.0474699e-05 -1.0891571e-07)
(-5.3941462e-06 -8.9956919e-06 -1.1503078e-07)
(-8.4204541e-06 -5.5855384e-06 -8.1411009e-08)
(-9.8183894e-06 -9.3397751e-07 -1.8553672e-08)
(2.2495367e-06 -9.6606085e-06 -9.4398633e-07)
(-1.4957413e-06 -1.0142376e-05 -9.0296916e-07)
(-5.2235919e-06 -8.7143181e-06 -6.8729501e-07)
(-8.154331e-06 -5.442919e-06 -2.8896152e-07)
(-9.4902784e-06 -9.7820318e-07 2.2457057e-07)
(2.206476e-06 -8.8473086e-06 -1.5866754e-06)
(-1.3001992e-06 -9.3061881e-06 -1.5073576e-06)
(-4.7801385e-06 -8.03867e-06 -1.128205e-06)
(-7.5085886e-06 -5.1162506e-06 -4.4997006e-07)
(-8.7706613e-06 -1.102941e-06 3.888981e-07)
(2.140396e-06 -7.7486089e-06 -1.859822e-06)
(-1.0372709e-06 -8.2029022e-06 -1.7553116e-06)
(-4.1662044e-06 -7.1558065e-06 -1.2767581e-06)
(-6.6372279e-06 -4.6975168e-06 -4.6036052e-07)
(-7.8311369e-06 -1.301782e-06 5.3094537e-07)
)
;
    }
    procBoundary7to6
    {
        type            processor;
        value           nonuniform List<vector> 
25
(
(3.5750455e-06 -5.0543303e-06 3.7046926e-07)
(2.3678364e-06 -3.180511e-06 1.9207307e-07)
(1.637784e-06 -1.9474302e-06 1.0060401e-07)
(1.2391927e-06 -1.0440546e-06 6.8305766e-08)
(1.065888e-06 -3.2352048e-07 5.8004874e-08)
(3.5750969e-06 -5.1558343e-06 -2.2439005e-08)
(2.3616496e-06 -3.2823284e-06 -4.3836062e-08)
(1.6298736e-06 -2.0055534e-06 -6.6607748e-08)
(1.2209593e-06 -1.0764585e-06 -8.1119692e-08)
(1.0353283e-06 -3.3656546e-07 -9.5643881e-08)
(3.5208318e-06 -5.0122699e-06 -4.9020368e-07)
(2.3176717e-06 -3.2246798e-06 -3.1344275e-07)
(1.586665e-06 -1.9847138e-06 -2.3189884e-07)
(1.1762122e-06 -1.0731046e-06 -1.9948528e-07)
(9.9410581e-07 -3.3805713e-07 -1.9096306e-07)
(3.3906983e-06 -4.6369879e-06 -8.2660223e-07)
(2.2316169e-06 -3.0240235e-06 -5.0253245e-07)
(1.522029e-06 -1.8915959e-06 -3.4169466e-07)
(1.1239646e-06 -1.0355617e-06 -2.7316781e-07)
(9.4961601e-07 -3.2808194e-07 -2.4780602e-07)
(3.2151881e-06 -4.1165855e-06 -9.5060539e-07)
(2.1226236e-06 -2.7397722e-06 -5.599572e-07)
(1.4475709e-06 -1.7553492e-06 -3.5418393e-07)
(1.0676204e-06 -9.7927031e-07 -2.5824849e-07)
(8.9974437e-07 -3.1274961e-07 -2.2332573e-07)
)
;
    }
    procBoundary7to8
    {
        type            processor;
        value           nonuniform List<vector> 
25
(
(-5.9247096e-06 2.2475022e-06 -3.1979825e-07)
(-3.9016549e-06 1.3872741e-06 -1.7657476e-07)
(-2.6900405e-06 8.0081559e-07 -1.0792096e-07)
(-1.9874635e-06 3.9953235e-07 -7.1258741e-08)
(-1.6516054e-06 1.1992132e-07 -4.6797404e-08)
(-5.9314786e-06 2.3474566e-06 5.7523732e-08)
(-3.9058615e-06 1.4325852e-06 5.2527355e-08)
(-2.6850468e-06 8.0293501e-07 2.535185e-08)
(-1.9841247e-06 4.0084963e-07 1.2033407e-08)
(-1.6611275e-06 1.2296747e-07 1.2357209e-08)
(-5.7937361e-06 2.1899241e-06 4.0938225e-07)
(-3.8199623e-06 1.3551022e-06 2.3620503e-07)
(-2.6240723e-06 7.6032164e-07 1.4412048e-07)
(-1.9450327e-06 3.8653433e-07 1.1456404e-07)
(-1.6373976e-06 1.2024066e-07 1.084601e-07)
(-5.5156197e-06 1.8248951e-06 6.6570147e-07)
(-3.6519529e-06 1.1673235e-06 3.7067685e-07)
(-2.5159284e-06 6.8129401e-07 2.406746e-07)
(-1.874396e-06 3.6520351e-07 2.0583453e-07)
(-1.5851376e-06 1.1688048e-07 2.0228124e-07)
(-5.1500554e-06 1.3514295e-06 8.4579232e-07)
(-3.4495619e-06 9.300753e-07 4.8266135e-07)
(-2.3916734e-06 5.9547931e-07 3.0414084e-07)
(-1.786437e-06 3.4817363e-07 2.2520042e-07)
(-1.5123015e-06 1.1672272e-07 1.9339847e-07)
)
;
    }
    procBoundary7to16
    {
        type            processor;
        value           nonuniform List<vector> 
25
(
(1.3334028e-06 -4.5233725e-06 -1.0360009e-06)
(-5.6685815e-07 -4.7716697e-06 -9.3866351e-07)
(-2.3996124e-06 -4.2097283e-06 -6.6554181e-07)
(-3.8581299e-06 -2.900864e-06 -2.4944773e-07)
(-4.5939675e-06 -1.0927186e-06 2.0810109e-07)
(8.7643977e-07 -3.0331532e-06 -5.7547942e-07)
(-4.0349113e-07 -3.1490367e-06 -5.0792493e-07)
(-1.6143817e-06 -2.7282873e-06 -3.4332721e-07)
(-2.5838754e-06 -1.82772e-06 -1.0521826e-07)
(-3.1018804e-06 -6.0698694e-07 1.4514159e-07)
(6.1196819e-07 -1.946925e-06 -3.193806e-07)
(-2.6199219e-07 -1.9790378e-06 -2.754208e-07)
(-1.0782956e-06 -1.6858094e-06 -1.7570113e-07)
(-1.7368296e-06 -1.1055212e-06 -3.4883226e-08)
(-2.1405755e-06 -3.2434142e-07 1.1428356e-07)
(4.87289e-07 -1.0849169e-06 -1.8305861e-07)
(-1.4237558e-07 -1.0685904e-06 -1.592948e-07)
(-7.4086516e-07 -8.9286472e-07 -1.0063743e-07)
(-1.2224074e-06 -5.7294936e-07 -1.2924876e-08)
(-1.5725261e-06 -1.3938005e-07 8.4486588e-08)
(4.4763097e-07 -3.4694784e-07 -1.2386716e-07)
(-7.0237187e-08 -3.3238517e-07 -1.1578154e-07)
(-5.8269701e-07 -2.7455156e-07 -7.5787314e-08)
(-9.8313118e-07 -1.7422298e-07 -9.8733239e-09)
(-1.3126825e-06 -3.5544966e-08 6.4306728e-08)
)
;
    }
    procBoundary7to25throughfront
    {
        type            processorCyclic;
        value           nonuniform List<vector> 
25
(
(1.4056132e-06 -5.8433869e-06 8.3930908e-07)
(8.944786e-07 -3.6731465e-06 4.8638099e-07)
(6.2111597e-07 -2.2245448e-06 2.8822344e-07)
(5.1766074e-07 -1.1715365e-06 1.7426089e-07)
(4.8804483e-07 -3.5885989e-07 1.183721e-07)
(-8.7300345e-07 -6.0716632e-06 7.1861559e-07)
(-6.2999769e-07 -3.7969603e-06 3.8197815e-07)
(-4.4249271e-07 -2.2586037e-06 2.1409352e-07)
(-3.0236203e-07 -1.1663852e-06 1.2987432e-07)
(-2.3917124e-07 -3.5535504e-07 8.9715201e-08)
(-3.1878372e-06 -5.251679e-06 4.9159319e-07)
(-2.1252939e-06 -3.2426358e-06 2.3459422e-07)
(-1.4419465e-06 -1.896909e-06 1.140116e-07)
(-1.0476115e-06 -9.6791137e-07 5.7997604e-08)
(-8.7938577e-07 -2.9540401e-07 3.3096882e-08)
(-5.0083454e-06 -3.3911416e-06 1.4744488e-07)
(-3.2755002e-06 -2.0510696e-06 5.3870978e-08)
(-2.2081184e-06 -1.1809213e-06 1.050156e-08)
(-1.6246535e-06 -6.0382641e-07 -1.9132488e-08)
(-1.3728076e-06 -1.8718267e-07 -3.6560804e-08)
(-5.8836691e-06 -8.0520205e-07 -2.2492785e-07)
(-3.8326256e-06 -4.4240873e-07 -1.0568075e-07)
(-2.6118915e-06 -2.4606228e-07 -6.9119921e-08)
(-1.9540853e-06 -1.3290986e-07 -9.3052155e-08)
(-1.6677527e-06 -4.3923481e-08 -1.1606061e-07)
)
;
    }
}


// ************************************************************************* //
