/*--------------------------------*- C++ -*----------------------------------*\
| =========                 |                                                 |
| \\      /  F ield         | OpenFOAM: The Open Source CFD Toolbox           |
|  \\    /   O peration     | Version:  3.0.1                                 |
|   \\  /    A nd           | Web:      www.OpenFOAM.org                      |
|    \\/     M anipulation  |                                                 |
\*---------------------------------------------------------------------------*/
FoamFile
{
    version     2.0;
    format      ascii;
    class       surfaceScalarField;
    location    "0.2";
    object      phi;
}
// * * * * * * * * * * * * * * * * * * * * * * * * * * * * * * * * * * * * * //

dimensions      [0 3 -1 0 0 0 0];

internalField   nonuniform List<scalar> 
300
(
0.0014168971
0.00088847533
-0.00018580522
0.0017041085
0.00049407346
-5.5181387e-05
0.0016715851
7.9461259e-06
7.1504528e-05
0.0013709211
-0.00048392076
0.00019017373
-0.00090556393
0.00028410486
0.0010257029
0.00054960397
-0.000103043
0.0012187207
0.00028664508
-3.9192138e-05
0.0011805289
-3.7257415e-05
2.8515017e-05
0.00094968264
-0.00036186756
9.9764144e-05
-0.00063326103
0.00015961737
0.00076330441
0.00031263359
-5.4762867e-05
0.00089521759
0.00014451897
-2.3226713e-05
0.00085626475
-5.685459e-05
1.4528254e-05
0.00067843119
-0.00025222235
5.8124263e-05
-0.00040805158
0.00010099358
0.00059638083
0.00014225169
-2.5587196e-05
0.00069391344
5.8566282e-05
-7.9212345e-06
0.00066090088
-4.0734687e-05
1.4276432e-05
0.00052254779
-0.00013235721
4.4336399e-05
-0.00019941954
7.8579403e-05
0.00051396489
-9.6031848e-06
0.00059435751
1.0795401e-06
0.0005688854
1.8725809e-05
0.00045325789
4.5913194e-05
7.7040715e-05
0.0015451039
0.00097143677
-0.00019394832
0.0018303561
0.00051045879
-3.3264097e-05
0.001790208
-3.4489616e-05
0.00011983587
0.0014654393
-0.00057376675
0.00025917846
-0.0010304437
0.00036609525
0.0010894978
0.00059805738
-0.0001132732
0.0012862542
0.00030283785
-2.4034356e-05
0.0012515392
-5.0914463e-05
6.5892886e-05
0.0010092263
-0.00040309928
0.00014862834
-0.00069168672
0.00021470078
0.00079473632
0.00034139663
-6.1052726e-05
0.0009329497
0.00015985661
-1.0752921e-05
0.00089970419
-5.7011406e-05
4.1898631e-05
0.00072093166
-0.00026585762
9.4046283e-05
-0.00043018925
0.00013843107
0.00061345235
0.00015743987
-2.8336257e-05
0.00071617522
6.7411824e-05
-2.0811099e-07
0.00069093967
-3.6395018e-05
3.2600774e-05
0.00055676051
-0.00013088222
6.9935117e-05
-0.00020305732
0.00010310778
0.00052406603
-1.3901207e-05
0.00061217133
5.5313235e-06
0.00059616005
3.2047013e-05
0.00048438847
6.359421e-05
9.1573962e-05
0.0017042103
0.0010522792
-0.00018031106
0.001983534
0.00051977482
-5.954318e-06
0.0019295814
-8.8426293e-05
0.00016130114
0.00157223
-0.00068430712
0.00030268001
-0.0011815812
0.00040124224
0.001178632
0.000650502
-0.00010797723
0.0013761908
0.00031624015
-2.8969603e-06
0.001334247
-7.4828588e-05
9.911444e-05
0.0010753916
-0.00045763217
0.00018477622
-0.00076793819
0.00024581089
0.0008449758
0.00037415221
-5.6105687e-05
0.00098556744
0.00017041695
5.87924e-06
0.00095179748
-6.6352441e-05
6.7755873e-05
0.00076548492
-0.00029007337
0.00012119818
-0.00046574665
0.00015852066
0.00064133343
0.00017185692
-2.1081782e-05
0.00074889731
7.309399e-05
1.3238254e-05
0.00072821309
-3.7052653e-05
5.1785471e-05
0.00059004246
-0.0001373395
8.666108e-05
-0.00021478645
0.0001109287
0.00054292457
-4.562958e-06
0.00063854398
1.7428686e-05
0.00062766882
4.4939792e-05
0.0005124412
7.1226904e-05
9.0744832e-05
0.0018777101
0.00112481
-0.00012936602
0.0021507608
0.00052298313
2.8700752e-05
0.0020709079
-0.00015046986
0.00018611657
0.0016707514
-0.00080208905
0.00030631013
-0.001336778
0.00036797889
0.0012835988
0.00070245768
-8.1547523e-05
0.0014781633
0.00032510881
2.426102e-05
0.0014198499
-0.00010610324
0.00012249099
0.0011363976
-0.00052114367
0.00019517562
-0.00085517474
0.00023462384
0.00090693671
0.00040911031
-4.0917799e-05
0.0010473983
0.00017771923
2.6877882e-05
0.0010051921
-8.2373735e-05
8.574818e-05
0.00080282481
-0.00032464868
0.00012641457
-0.0005134055
0.00015037812
0.00067567271
0.00018832414
-7.5809561e-06
0.00078739255
7.7237531e-05
2.6984882e-05
0.00076307476
-4.3920205e-05
5.7463527e-05
0.00061432345
-0.00015276647
7.9926871e-05
-0.00023499002
9.7747504e-05
0.00056493695
1.112557e-05
0.00066600242
2.4655355e-05
0.00065397549
4.1150699e-05
0.00053192484
5.7785057e-05
7.1778181e-05
0.0020418882
0.0011719284
0.0023083243
0.00051809751
0.002191072
-0.00021424717
0.0017325325
-0.00091315645
-0.0014703654
0.0013897565
0.00074346168
0.0015769808
0.00032783683
0.0014929035
-0.00014289679
0.0011758803
-0.00058993889
-0.00093928736
0.00097481604
0.00044345888
0.0011067119
0.00017845004
0.0010462864
-0.00011042441
0.00082693552
-0.00037112332
-0.00056601502
0.00071012026
0.00020773392
0.00081788143
7.5252205e-05
0.00078573181
-5.9997129e-05
0.00063231205
-0.0001748245
-0.00026110015
0.00057841637
0.00068236602
0.0006706284
0.00054589876
)
;

boundaryField
{
    movingWall
    {
        type            calculated;
        value           uniform 0;
    }
    CPLReceiveMD
    {
        type            calculated;
        value           nonuniform 0();
    }
    streamwiseIn
    {
        type            cyclic;
        value           nonuniform 0();
    }
    streamwiseOut
    {
        type            cyclic;
        value           nonuniform 0();
    }
    front
    {
        type            cyclic;
        value           nonuniform 0();
    }
    back
    {
        type            cyclic;
        value           nonuniform 0();
    }
    procBoundary24to6throughback
    {
        type            processorCyclic;
        value           nonuniform List<scalar> 
25
(
-7.8772328e-05
-2.3596719e-05
-6.7680688e-06
-8.2581558e-07
-8.1862231e-07
-1.0076468e-05
2.0875152e-05
2.5903734e-05
2.540561e-05
2.1116738e-05
7.2426426e-05
6.5415462e-05
5.3267304e-05
4.4597064e-05
3.6578736e-05
0.00015301312
0.00010253865
7.2753934e-05
5.758638e-05
4.8591323e-05
0.00020596912
0.00011407777
7.1692873e-05
5.9945046e-05
6.1148439e-05
)
;
    }
    procBoundary24to15
    {
        type            processor;
        value           nonuniform List<scalar> 
25
(
1.4309501e-05
-1.0511761e-05
-5.468587e-05
-9.1425998e-05
-0.00010710503
3.2985177e-05
8.5923683e-06
-2.8445952e-05
-6.038337e-05
-6.7167266e-05
3.1220241e-05
1.3725478e-05
-1.3601877e-05
-3.9568119e-05
-5.0586017e-05
2.2472497e-05
1.3207707e-05
-5.7453464e-06
-2.565847e-05
-3.8631406e-05
1.6536754e-05
1.0617555e-05
-2.9578353e-06
-1.9041273e-05
-3.1768893e-05
)
;
    }
    procBoundary24to21
    {
        type            processor;
        value           nonuniform List<scalar> 
25
(
-0.0015380095
-0.00086454334
-9.6736524e-05
0.00066811396
0.0013280782
-0.0015901862
-0.00085199757
-1.5589124e-05
0.00079854738
0.0014863719
-0.0016773664
-0.00083895008
9.5775565e-05
0.00098602303
0.0017151131
-0.0017712094
-0.00082601835
0.00020949526
0.0011905084
0.0019831557
-0.0018739205
-0.00084124169
0.00027759044
0.0013493456
0.0022310642
)
;
    }
    procBoundary24to25
    {
        type            processor;
        value           nonuniform List<scalar> 
25
(
0.00093867685
0.00063172881
0.00044341463
0.00034513954
0.00030606471
0.00093765536
0.000646671
0.00046129109
0.00035923994
0.00031464687
0.00095182213
0.00065968602
0.00047258818
0.0003692177
0.00032357083
0.00097395442
0.00066413462
0.00047407281
0.00037392538
0.00033141536
0.00098551147
0.00064738479
0.00045734093
0.00037315469
0.0003465711
)
;
    }
    procBoundary24to26throughstreamwiseIn
    {
        type            processorCyclic;
        value           nonuniform List<scalar> 
25
(
-0.00097678468
-0.00065898669
-0.00046559459
-0.00035165392
-0.00029761917
-0.0010293915
-0.00069726176
-0.00048830344
-0.00036299201
-0.00030474374
-0.0011395563
-0.0007645109
-0.00053057411
-0.00039060709
-0.00032487662
-0.0012745646
-0.00084275498
-0.00058122733
-0.00042613402
-0.00035263482
-0.0014088118
-0.00091685633
-0.0006288398
-0.00046274265
-0.00038633803
)
;
    }
}


// ************************************************************************* //
