/*--------------------------------*- C++ -*----------------------------------*\
| =========                 |                                                 |
| \\      /  F ield         | OpenFOAM: The Open Source CFD Toolbox           |
|  \\    /   O peration     | Version:  3.0.1                                 |
|   \\  /    A nd           | Web:      www.OpenFOAM.org                      |
|    \\/     M anipulation  |                                                 |
\*---------------------------------------------------------------------------*/
FoamFile
{
    version     2.0;
    format      ascii;
    class       volVectorField;
    location    "0.2";
    object      U;
}
// * * * * * * * * * * * * * * * * * * * * * * * * * * * * * * * * * * * * * //

dimensions      [0 1 -1 0 0 0 0];

internalField   nonuniform List<vector> 
125
(
(2.9954845e-06 3.0286988e-06 -2.5095322e-07)
(3.9063778e-06 1.6955929e-06 -5.68312e-08)
(4.2219287e-06 1.2927025e-07 1.5682021e-07)
(3.8054396e-06 -1.4408472e-06 3.5183884e-07)
(2.8892649e-06 -2.7919002e-06 4.888438e-07)
(2.1054057e-06 1.7947326e-06 -1.7063258e-07)
(2.8064114e-06 9.7349293e-07 -6.0057743e-08)
(3.0004026e-06 -3.8428734e-08 7.0833613e-08)
(2.6650591e-06 -1.0582222e-06 1.9974894e-07)
(1.9788677e-06 -1.9234267e-06 2.8602562e-07)
(1.5355424e-06 1.0768504e-06 -1.0764708e-07)
(2.0732165e-06 5.3807226e-07 -4.6356079e-08)
(2.1902136e-06 -1.1833936e-07 3.5027089e-08)
(1.9204417e-06 -7.6812022e-07 1.218699e-07)
(1.4044251e-06 -1.3024962e-06 1.8892372e-07)
(1.1831927e-06 5.6839177e-07 -6.0572234e-08)
(1.6112216e-06 2.5342214e-07 -2.6512952e-08)
(1.69421e-06 -1.2258345e-07 2.4963759e-08)
(1.4809021e-06 -4.8143394e-07 8.7259849e-08)
(1.0867207e-06 -7.634335e-07 1.4581205e-07)
(1.0108546e-06 1.7777245e-07 -3.2862197e-08)
(1.38186e-06 7.3060771e-08 -1.196833e-08)
(1.4547859e-06 -5.1150026e-08 2.7100485e-08)
(1.2789305e-06 -1.6574149e-07 8.0777042e-08)
(9.5132659e-07 -2.5242703e-07 1.3343813e-07)
(3.2241612e-06 3.1972108e-06 -4.7525442e-07)
(4.2268294e-06 1.7000368e-06 -1.116783e-07)
(4.5279378e-06 -2.5207921e-08 2.3751885e-07)
(4.0720082e-06 -1.715986e-06 5.5993287e-07)
(3.0063301e-06 -3.145899e-06 8.1200526e-07)
(2.2332525e-06 1.9587518e-06 -2.7055805e-07)
(2.9705206e-06 1.0143825e-06 -7.9311138e-08)
(3.1736339e-06 -1.0819075e-07 1.1752621e-07)
(2.8280436e-06 -1.2218425e-06 3.0977246e-07)
(2.0720187e-06 -2.1526714e-06 4.6655667e-07)
(1.6033977e-06 1.172948e-06 -1.4496202e-07)
(2.1598868e-06 5.772241e-07 -4.2614087e-08)
(2.2917128e-06 -1.3577875e-07 7.0327803e-08)
(2.0275275e-06 -8.3679558e-07 1.8984069e-07)
(1.4796113e-06 -1.4027972e-06 2.9807238e-07)
(1.2199171e-06 6.2320915e-07 -6.8176811e-08)
(1.6617939e-06 2.835883e-07 -1.0342605e-08)
(1.7596141e-06 -1.1725947e-07 5.8424162e-08)
(1.561025e-06 -4.9633983e-07 1.4262154e-07)
(1.1465723e-06 -7.9227186e-07 2.266519e-07)
(1.0345331e-06 1.96738e-07 -3.1123583e-08)
(1.4190173e-06 8.4143909e-08 7.9285909e-09)
(1.5111889e-06 -4.557949e-08 6.3253817e-08)
(1.3518276e-06 -1.6363562e-07 1.367049e-07)
(1.0002454e-06 -2.540553e-07 2.1060561e-07)
(3.5628555e-06 3.4066462e-06 -4.6813528e-07)
(4.619151e-06 1.6949385e-06 -4.9236666e-08)
(4.8935399e-06 -2.3203652e-07 3.5118049e-07)
(4.379926e-06 -2.0886323e-06 7.0211144e-07)
(3.1575667e-06 -3.6210519e-06 9.5905773e-07)
(2.429015e-06 2.125025e-06 -2.767277e-07)
(3.1944957e-06 1.0425571e-06 -3.3831282e-08)
(3.3894862e-06 -2.0561978e-07 2.060629e-07)
(3.0140895e-06 -1.4283143e-06 4.1654512e-07)
(2.1709609e-06 -2.4373596e-06 5.7544904e-07)
(1.7191519e-06 1.2792316e-06 -1.4652507e-07)
(2.2885063e-06 6.0704077e-07 -6.2274443e-09)
(2.4226684e-06 -1.7744142e-07 1.3687777e-07)
(2.1481863e-06 -9.3527116e-07 2.6885344e-07)
(1.5492936e-06 -1.542401e-06 3.7098884e-07)
(1.289492e-06 6.8217464e-07 -6.1819618e-08)
(1.7378226e-06 3.0392563e-07 1.615726e-08)
(1.8471742e-06 -1.2967424e-07 1.0527675e-07)
(1.6491298e-06 -5.3455932e-07 1.9551308e-07)
(1.200455e-06 -8.5086323e-07 2.6733768e-07)
(1.0838041e-06 2.1476304e-07 -2.3136973e-08)
(1.4762374e-06 9.128798e-08 2.8563001e-08)
(1.5835623e-06 -4.6341202e-08 9.5966965e-08)
(1.4262823e-06 -1.7165069e-07 1.6819973e-07)
(1.0462379e-06 -2.6843796e-07 2.2771873e-07)
(3.9494358e-06 3.6139714e-06 -3.8767228e-07)
(5.0461451e-06 1.6824279e-06 2.7787868e-08)
(5.2792859e-06 -4.5196343e-07 4.3399235e-07)
(4.6798854e-06 -2.491667e-06 7.610418e-07)
(3.3083877e-06 -4.1503715e-06 9.613248e-07)
(2.6581363e-06 2.280362e-06 -2.3895895e-07)
(3.4533112e-06 1.0573918e-06 2.5191836e-08)
(3.6240103e-06 -3.2249347e-07 2.762603e-07)
(3.1974297e-06 -1.6551005e-06 4.7467646e-07)
(2.2527097e-06 -2.7407403e-06 6.004445e-07)
(1.8599503e-06 1.387856e-06 -1.2279452e-07)
(2.4432896e-06 6.2721262e-07 3.9525673e-08)
(2.5667937e-06 -2.3656492e-07 1.9106148e-07)
(2.2616386e-06 -1.0578276e-06 3.0925965e-07)
(1.5977447e-06 -1.7109086e-06 3.8622123e-07)
(1.3767804e-06 7.4655541e-07 -3.5958697e-08)
(1.8288902e-06 3.1835112e-07 4.9761915e-08)
(1.9389699e-06 -1.5817575e-07 1.3615105e-07)
(1.7230859e-06 -5.9697345e-07 2.0809327e-07)
(1.236682e-06 -9.3549785e-07 2.6105939e-07)
(1.1459386e-06 2.3536939e-07 8.9541015e-09)
(1.5381212e-06 9.6517725e-08 5.2544663e-08)
(1.6508257e-06 -5.489504e-08 1.0750164e-07)
(1.4835794e-06 -1.9092582e-07 1.6122055e-07)
(1.0804793e-06 -2.9362579e-07 2.0315958e-07)
(4.3146144e-06 3.8004376e-06 -2.5967255e-07)
(5.4408157e-06 1.6949798e-06 2.2793787e-08)
(5.6267938e-06 -6.1709353e-07 3.2180739e-07)
(4.9072585e-06 -2.829173e-06 5.7265127e-07)
(3.3999831e-06 -4.6268207e-06 7.1577586e-07)
(2.8834336e-06 2.3899027e-06 -1.3278889e-07)
(3.7097149e-06 1.0542949e-06 5.5340207e-08)
(3.8389708e-06 -4.4855065e-07 2.3403203e-07)
(3.3382737e-06 -1.8800965e-06 3.7125428e-07)
(2.2810383e-06 -3.0124631e-06 4.3386776e-07)
(2.0042714e-06 1.4822318e-06 -6.1098014e-08)
(2.6023623e-06 6.3161083e-07 6.4674793e-08)
(2.6924024e-06 -3.1755069e-07 1.7295008e-07)
(2.343346e-06 -1.2018543e-06 2.481841e-07)
(1.6069331e-06 -1.8817861e-06 2.7600517e-07)
(1.4654034e-06 8.1390525e-07 -1.2407876e-08)
(1.9099324e-06 3.169348e-07 6.4937835e-08)
(2.0055055e-06 -2.1322772e-07 1.270692e-07)
(1.7740382e-06 -6.8257324e-07 1.7175017e-07)
(1.2583476e-06 -1.0338816e-06 1.9734612e-07)
(1.2042352e-06 2.5964438e-07 1.1239727e-08)
(1.574785e-06 9.4057919e-08 5.5851014e-08)
(1.6922381e-06 -7.4979626e-08 9.6692967e-08)
(1.5219403e-06 -2.1848954e-07 1.329634e-07)
(1.1172435e-06 -3.2628398e-07 1.6740641e-07)
)
;

boundaryField
{
    movingWall
    {
        type            fixedValue;
        value           uniform (0 0 0);
    }
    CPLReceiveMD
    {
        type            fixedValue;
        value           nonuniform 0();
    }
    streamwiseIn
    {
        type            cyclic;
    }
    streamwiseOut
    {
        type            cyclic;
    }
    front
    {
        type            cyclic;
    }
    back
    {
        type            cyclic;
    }
    procBoundary24to6throughback
    {
        type            processorCyclic;
        value           nonuniform List<vector> 
25
(
(4.4860488e-06 3.907049e-06 -7.7845405e-08)
(3.01488e-06 2.4789366e-06 3.726846e-09)
(2.0857892e-06 1.508237e-06 3.2024629e-08)
(1.5081751e-06 8.1888989e-07 3.5052669e-08)
(1.2187044e-06 2.5900715e-07 2.9180057e-08)
(5.6276251e-06 1.6596243e-06 4.6154425e-08)
(3.8201321e-06 1.0992728e-06 6.3523153e-08)
(2.6773377e-06 6.3681024e-07 5.9120352e-08)
(1.9683673e-06 3.0953378e-07 6.0309623e-08)
(1.6235745e-06 8.7438495e-08 6.3671025e-08)
(5.8291434e-06 -8.0734419e-07 1.6243556e-07)
(3.9399244e-06 -4.7135078e-07 1.147992e-07)
(2.750303e-06 -3.4352775e-07 8.0112104e-08)
(2.0457823e-06 -2.3441545e-07 7.753051e-08)
(1.727938e-06 -8.5248115e-08 8.1675505e-08)
(5.0738539e-06 -3.1453261e-06 2.7496356e-07)
(3.3972654e-06 -1.9795677e-06 1.6277063e-07)
(2.3646937e-06 -1.2573318e-06 1.0073389e-07)
(1.7933628e-06 -7.121651e-07 8.4490108e-08)
(1.5542928e-06 -2.2967676e-07 7.7975952e-08)
(3.5750455e-06 -5.0543303e-06 3.7046926e-07)
(2.3678364e-06 -3.180511e-06 1.9207307e-07)
(1.637784e-06 -1.9474302e-06 1.0060401e-07)
(1.2391927e-06 -1.0440546e-06 6.8305766e-08)
(1.065888e-06 -3.2352048e-07 5.8004874e-08)
)
;
    }
    procBoundary24to15
    {
        type            processor;
        value           nonuniform List<vector> 
25
(
(2.6207441e-06 2.694817e-06 -1.2957706e-07)
(3.8190559e-06 1.5764125e-06 -3.6005091e-08)
(4.1192678e-06 1.7320455e-07 7.1178242e-08)
(3.7399846e-06 -1.2575584e-06 1.5017803e-07)
(2.7067279e-06 -2.4749782e-06 1.9105759e-07)
(1.9172621e-06 1.8154457e-06 -1.2390804e-07)
(2.7290544e-06 1.0039074e-06 -4.1164979e-08)
(2.9138272e-06 1.3602372e-08 4.0978459e-08)
(2.6128516e-06 -9.9187357e-07 9.853801e-08)
(1.8853109e-06 -1.8527514e-06 1.2300087e-07)
(1.4352427e-06 1.0628876e-06 -1.0645388e-07)
(2.0172126e-06 5.4367933e-07 -4.3213781e-08)
(2.1234868e-06 -8.990888e-08 1.5383428e-08)
(1.8736309e-06 -7.2430647e-07 5.7064183e-08)
(1.3529256e-06 -1.2625836e-06 7.8689858e-08)
(1.1184416e-06 5.4847648e-07 -9.0722081e-08)
(1.5762579e-06 2.4924267e-07 -4.9616294e-08)
(1.6458413e-06 -1.0930818e-07 -9.4201567e-09)
(1.4401767e-06 -4.5524378e-07 2.3804227e-08)
(1.0462389e-06 -7.3680231e-07 4.8124057e-08)
(9.5297288e-07 1.690868e-07 -8.3963392e-08)
(1.3590546e-06 6.9646019e-08 -5.5391355e-08)
(1.4184436e-06 -4.7689052e-08 -2.5425543e-08)
(1.24549e-06 -1.5714892e-07 4.9235614e-09)
(9.1127327e-07 -2.4169923e-07 3.2462297e-08)
)
;
    }
    procBoundary24to21
    {
        type            processor;
        value           nonuniform List<vector> 
25
(
(4.0555181e-06 4.5818338e-06 -6.7302638e-07)
(5.7058399e-06 2.61344e-06 -1.8368205e-07)
(6.1368427e-06 3.3594277e-07 2.6924609e-07)
(5.5862296e-06 -1.9204735e-06 6.5817649e-07)
(4.129874e-06 -3.8457744e-06 9.5694648e-07)
(4.6241106e-06 4.8940969e-06 -6.4850553e-07)
(6.1929394e-06 2.6202504e-06 -7.865677e-08)
(6.5896567e-06 6.5188281e-08 4.7883298e-07)
(5.9487347e-06 -2.3985541e-06 9.5755759e-07)
(4.4243345e-06 -4.4756046e-06 1.2957083e-06)
(5.3024374e-06 5.2530432e-06 -6.934883e-07)
(6.8331784e-06 2.5901437e-06 -1.6222337e-08)
(7.173057e-06 -3.1465448e-07 6.3281841e-07)
(6.4031049e-06 -3.0451562e-06 1.1922262e-06)
(4.7353056e-06 -5.3091601e-06 1.5799215e-06)
(5.9969826e-06 5.5805935e-06 -6.3275032e-07)
(7.5192461e-06 2.5206428e-06 2.515057e-08)
(7.7981052e-06 -7.3139537e-07 6.6131732e-07)
(6.8958378e-06 -3.751719e-06 1.2152171e-06)
(5.0340298e-06 -6.2472396e-06 1.6062133e-06)
(6.5633706e-06 5.8781139e-06 -4.2586643e-07)
(8.1272461e-06 2.4964941e-06 7.8143807e-08)
(8.3631236e-06 -1.0508127e-06 5.8941279e-07)
(7.3480009e-06 -4.3610877e-06 1.0249134e-06)
(5.2952522e-06 -7.1321436e-06 1.3378266e-06)
)
;
    }
    procBoundary24to25
    {
        type            processor;
        value           nonuniform List<vector> 
25
(
(1.4633395e-06 -3.5918535e-06 6.51441e-07)
(9.6971754e-07 -2.543062e-06 3.8645672e-07)
(6.9105067e-07 -1.660267e-06 2.4855557e-07)
(5.6292106e-07 -9.3387972e-07 1.8759325e-07)
(5.2265007e-07 -3.0047305e-07 1.6974917e-07)
(1.4785421e-06 -4.0683018e-06 8.2823466e-07)
(9.9884165e-07 -2.7485613e-06 5.0186568e-07)
(7.1685809e-07 -1.7622418e-06 3.3470923e-07)
(5.7894972e-07 -9.7503437e-07 2.5635587e-07)
(5.2877579e-07 -3.0927885e-07 2.3161617e-07)
(1.4791728e-06 -4.6529769e-06 1.004169e-06)
(1.0002755e-06 -3.0365875e-06 5.9723612e-07)
(7.1339872e-07 -1.9057769e-06 3.8698682e-07)
(5.7466571e-07 -1.0369224e-06 2.856228e-07)
(5.2064469e-07 -3.2516199e-07 2.4843364e-07)
(1.4541913e-06 -5.2729871e-06 1.0034582e-06)
(9.6627599e-07 -3.3657435e-06 5.8475381e-07)
(6.8231023e-07 -2.0738551e-06 3.6689914e-07)
(5.5193946e-07 -1.1135287e-06 2.6598588e-07)
(5.0083828e-07 -3.4640627e-07 2.3222617e-07)
(1.4056132e-06 -5.8433869e-06 8.3930908e-07)
(8.944786e-07 -3.6731465e-06 4.8638099e-07)
(6.2111597e-07 -2.2245448e-06 2.8822344e-07)
(5.1766074e-07 -1.1715365e-06 1.7426089e-07)
(4.8804483e-07 -3.5885989e-07 1.183721e-07)
)
;
    }
    procBoundary24to26throughstreamwiseIn
    {
        type            processorCyclic;
        value           nonuniform List<vector> 
25
(
(1.3335252e-06 3.6457053e-06 -6.6024831e-07)
(8.9334979e-07 2.433435e-06 -3.7604819e-07)
(6.1251056e-07 1.4602853e-06 -2.1451108e-07)
(4.3622512e-07 7.779864e-07 -1.2798846e-07)
(3.4813275e-07 2.4522585e-07 -9.3528569e-08)
(1.5265108e-06 4.0908948e-06 -6.7904938e-07)
(1.0181251e-06 2.6351461e-06 -4.029205e-07)
(6.8873059e-07 1.5905596e-06 -2.2622365e-07)
(4.8479153e-07 8.5232141e-07 -1.1664193e-07)
(3.8761129e-07 2.693457e-07 -6.5020941e-08)
(1.8042183e-06 4.5683609e-06 -7.7451125e-07)
(1.181547e-06 2.8862607e-06 -4.5871508e-07)
(7.8973999e-07 1.7465638e-06 -2.6278011e-07)
(5.5435234e-07 9.391305e-07 -1.4070598e-07)
(4.4373604e-07 2.9677841e-07 -8.2842478e-08)
(2.1049393e-06 5.0212741e-06 -7.2397099e-07)
(1.3533045e-06 3.1468772e-06 -4.292267e-07)
(9.0082054e-07 1.9085686e-06 -2.4559383e-07)
(6.3680193e-07 1.0322066e-06 -1.261494e-07)
(5.1312902e-07 3.2714357e-07 -6.7886396e-08)
(2.379701e-06 5.3749168e-06 -5.1381923e-07)
(1.5071722e-06 3.3646379e-06 -3.0140349e-07)
(1.0045584e-06 2.0496411e-06 -1.611641e-07)
(7.1879867e-07 1.1168038e-06 -6.6456935e-08)
(5.8756051e-07 3.5499202e-07 -1.6914824e-08)
)
;
    }
}


// ************************************************************************* //
