/*--------------------------------*- C++ -*----------------------------------*\
| =========                 |                                                 |
| \\      /  F ield         | OpenFOAM: The Open Source CFD Toolbox           |
|  \\    /   O peration     | Version:  3.0.1                                 |
|   \\  /    A nd           | Web:      www.OpenFOAM.org                      |
|    \\/     M anipulation  |                                                 |
\*---------------------------------------------------------------------------*/
FoamFile
{
    version     2.0;
    format      ascii;
    class       surfaceScalarField;
    location    "0.2";
    object      phi;
}
// * * * * * * * * * * * * * * * * * * * * * * * * * * * * * * * * * * * * * //

dimensions      [0 3 -1 0 0 0 0];

internalField   nonuniform List<scalar> 
300
(
0.0068737065
-0.01742774
0.0027627638
-0.0042739443
-0.021627289
0.0031427679
-0.019051884
-0.021257326
0.0027480117
-0.030027045
-0.013720345
0.0011667332
-0.00057625728
-0.0013035933
0.0027616464
-0.011401682
0.0012936961
-0.0038941936
-0.013040207
0.001332745
-0.011497527
-0.012078433
0.0010265758
-0.016840776
-0.0076806974
0.0003457859
-0.00076893095
-0.00053015199
0.0011304345
-0.0073576198
0.00060630746
-0.0029268024
-0.0080213978
0.00058711416
-0.0070880502
-0.0071462299
0.00042340932
-0.0099083019
-0.0045063446
0.00012340105
-0.00063325282
-0.00022228091
0.00046808015
-0.0047657291
0.00028025783
-0.0020477805
-0.0050252673
0.00026517291
-0.0044416202
-0.0043559265
0.00018364774
-0.006035136
-0.0027463393
4.7359422e-05
-0.00051069493
-0.0001085537
0.00020951855
0.00015767742
-0.0013761846
0.00012598696
-0.002828773
7.487112e-05
-0.003774184
1.1737552e-05
-6.0834324e-05
0.0072538997
-0.018965342
-0.0019109949
-0.0046648312
-0.023439271
-0.0028134532
-0.020626631
-0.02298022
-0.0031513591
-0.032487038
-0.014540492
-0.0019865408
0.00020211688
0.00068799873
0.0028005388
-0.012094452
-0.001116615
-0.00419821
-0.013786372
-0.0013636357
-0.012175629
-0.012681684
-0.0013421157
-0.017711529
-0.0079016809
-0.0007713997
-0.00045837175
0.00029167826
0.0011114329
-0.0076841712
-0.0006617571
-0.0030897035
-0.0083435941
-0.0007090662
-0.0073870965
-0.0073857424
-0.00063331481
-0.010249654
-0.0045814137
-0.00033053184
-0.00051796414
0.00015411224
0.00045303531
-0.0048883172
-0.00038816241
-0.0021290564
-0.0051644522
-0.0003891062
-0.0045775469
-0.0044643558
-0.00032046591
-0.0061809415
-0.002781227
-0.00015420173
-0.0004623449
7.6323808e-05
0.00017787847
-0.0002158005
-0.0014271518
-0.00021317046
-0.0028916537
-0.00016678521
-0.0038484958
-7.6668962e-05
4.6207729e-05
0.00634018
-0.018202396
-0.0058109993
-0.0049993051
-0.021990992
-0.0072328329
-0.019455433
-0.021169576
-0.007114249
-0.029802294
-0.013322581
-0.0039981847
-0.00019226289
0.0016849579
0.0025533073
-0.01164213
-0.0031782235
-0.0041747484
-0.013131677
-0.0035619626
-0.011602363
-0.011972433
-0.003184338
-0.016643234
-0.0074594019
-0.0016348402
-0.00059424212
0.00078380626
0.0010644626
-0.0074106675
-0.0017387433
-0.0030131206
-0.0080236409
-0.0018152481
-0.0070832217
-0.0070725389
-0.001506233
-0.0097617557
-0.004404206
-0.00071546101
-0.00059469222
0.00038422213
0.00045219532
-0.0047160734
-0.00095759348
-0.002060035
-0.0049884758
-0.00094901036
-0.0044107903
-0.0043103622
-0.00074342568
-0.0059445776
-0.0027031435
-0.00033127897
-0.00049177215
0.00020528122
0.00018061244
-0.00053930766
-0.0013805802
-0.00050907991
-0.0028013901
-0.00038284492
-0.0037285838
-0.00015422075
0.00013387149
0.0049032678
-0.015590036
-0.0077462608
-0.0048785765
-0.018320446
-0.0088681062
-0.01633386
-0.017237535
-0.0080832601
-0.024115887
-0.010955451
-0.0042470291
-0.0010887092
0.0019600448
0.0021698176
-0.010203446
-0.0042771112
-0.0037956325
-0.01138481
-0.0045971846
-0.010050516
-0.010293513
-0.0038882434
-0.014222062
-0.0065381867
-0.0018895368
-0.00099144824
0.0009711771
0.00098823568
-0.006629538
-0.0023443648
-0.0027034981
-0.00715731
-0.0023972868
-0.006291299
-0.006309166
-0.0019216388
-0.0086604422
-0.0040189877
-0.00088081401
-0.00077251369
0.00050414632
0.0004608656
-0.0042976972
-0.0012934044
-0.0018540827
-0.0045482188
-0.0012680055
-0.0039980996
-0.0039493479
-0.00097850345
-0.0054065345
-0.00252555
-0.00042160141
-0.00056252765
0.00029395278
0.00021093821
-0.00072974312
-0.0012541773
-0.00069600296
-0.0025726703
-0.00051881928
-0.0034406594
-0.00020494133
0.00017761052
0.0037827679
-0.012123081
-0.0040921496
-0.014049669
-0.012494509
-0.013040909
-0.017909413
-0.0085955396
-0.0020748187
0.0018501401
-0.0082701392
-0.0030858943
-0.0091843911
-0.0080499247
-0.008325945
-0.011361056
-0.005527896
-0.0014561509
0.00093552251
-0.0055782092
-0.0022274849
-0.0060276501
-0.0052494584
-0.0053654927
-0.0072764047
-0.0035589243
-0.00098168067
0.00048629823
-0.003733759
-0.0015644069
-0.0039763221
-0.0034407192
-0.0034895417
-0.004693665
-0.0023086103
-0.00067856713
0.00024445196
-0.0010769899
-0.0022585236
-0.0030574502
)
;

boundaryField
{
    movingWall
    {
        type            calculated;
        value           nonuniform 0();
    }
    CPLReceiveMD
    {
        type            calculated;
        value           nonuniform 0();
    }
    streamwiseIn
    {
        type            cyclic;
        value           nonuniform 0();
    }
    streamwiseOut
    {
        type            cyclic;
        value           nonuniform 0();
    }
    front
    {
        type            cyclic;
        value           nonuniform 0();
    }
    back
    {
        type            cyclic;
        value           nonuniform 0();
    }
    procBoundary4to1
    {
        type            processor;
        value           nonuniform List<scalar> 
25
(
0.025780163
0.036609227
0.039605407
0.026316986
-0.0010877693
0.029184253
0.041246656
0.044947086
0.029617158
-0.0032508162
0.028183486
0.037767466
0.039620418
0.025604261
-0.0017377705
0.023517114
0.029745243
0.029724055
0.018937036
0.00054651409
0.017423877
0.021544703
0.020451729
0.013099123
0.00269232
)
;
    }
    procBoundary4to3
    {
        type            processor;
        value           nonuniform List<scalar> 
25
(
-0.012099818
-0.0069958064
-0.0042084999
-0.0026041011
-0.0016050271
-0.012769999
-0.0073000766
-0.0043306213
-0.0026495877
-0.001640451
-0.012260264
-0.007085803
-0.0042353471
-0.002598737
-0.0016158183
-0.010777865
-0.0064525945
-0.0039579852
-0.002469522
-0.0015512316
-0.0091035625
-0.0056729714
-0.0036006307
-0.0023034092
-0.001465074
)
;
    }
    procBoundary4to5
    {
        type            processor;
        value           nonuniform List<scalar> 
25
(
-0.029920914
-0.017317666
-0.01036743
-0.0063825471
-0.0039708869
-0.031381748
-0.017835606
-0.010563207
-0.0064488537
-0.0040077528
-0.028747308
-0.016749674
-0.010071473
-0.0061971192
-0.003868291
-0.023767146
-0.014523271
-0.0090205624
-0.0056706903
-0.0035807342
-0.018417568
-0.01195378
-0.0077536328
-0.0050212108
-0.0032120299
)
;
    }
    procBoundary4to7
    {
        type            processor;
        value           nonuniform List<scalar> 
25
(
-0.0030141187
-0.0031341457
-0.0026669365
-0.001660971
-0.00030840711
-0.0031036626
-0.0032170042
-0.0027354298
-0.0016924339
-0.00029190356
-0.0030132944
-0.0031270136
-0.0026638682
-0.0016556452
-0.00029707927
-0.0027810294
-0.0028981176
-0.0024839134
-0.0015712331
-0.00032534082
-0.002465661
-0.0025871062
-0.0022370702
-0.0014526962
-0.00036727442
)
;
    }
    procBoundary4to13
    {
        type            processor;
        value           nonuniform List<scalar> 
25
(
-0.0077757117
-0.0084757749
-0.007191849
-0.0034091544
0.0017609691
-0.0043891681
-0.0045517144
-0.0036908904
-0.001692134
0.00092354608
-0.0024634992
-0.0024534875
-0.0019079224
-0.0008352495
0.00051212183
-0.0013742707
-0.0013250854
-0.00099057208
-0.00040103
0.00031456433
-0.0007578522
-0.00070747966
-0.00050178064
-0.00016269383
0.00024744842
)
;
    }
    procBoundary4to22throughfront
    {
        type            processorCyclic;
        value           nonuniform List<scalar> 
25
(
-0.0061118889
-0.0031637369
-0.0016307148
-0.00086326103
-0.00044005461
-0.0069900992
-0.0033230151
-0.0016198619
-0.00081635357
-0.00040147694
-0.0061059006
-0.0026501846
-0.0012205784
-0.00058319497
-0.00025528359
-0.0026085994
-0.00099648363
-0.00042497301
-0.00018901434
-4.5545241e-05
0.0026895133
0.0011905028
0.00054694642
0.00024974912
0.00016764863
)
;
    }
}


// ************************************************************************* //
