/*--------------------------------*- C++ -*----------------------------------*\
| =========                 |                                                 |
| \\      /  F ield         | OpenFOAM: The Open Source CFD Toolbox           |
|  \\    /   O peration     | Version:  3.0.1                                 |
|   \\  /    A nd           | Web:      www.OpenFOAM.org                      |
|    \\/     M anipulation  |                                                 |
\*---------------------------------------------------------------------------*/
FoamFile
{
    version     2.0;
    format      ascii;
    class       volVectorField;
    location    "0.2";
    object      U;
}
// * * * * * * * * * * * * * * * * * * * * * * * * * * * * * * * * * * * * * //

dimensions      [0 1 -1 0 0 0 0];

internalField   nonuniform List<vector> 
125
(
(2.3725663e-05 -5.4278625e-05 1.1136258e-05)
(3.2765981e-06 -7.2810475e-05 1.266844e-05)
(-2.910474e-05 -7.6064346e-05 1.1065673e-05)
(-6.1231704e-05 -5.0023783e-05 4.7150929e-06)
(-7.4843959e-05 6.9704517e-07 -4.9966267e-06)
(1.2204016e-05 -3.6149923e-05 5.5746795e-06)
(-1.3989409e-06 -4.3333095e-05 5.8201809e-06)
(-1.9209467e-05 -4.1660845e-05 4.5940856e-06)
(-3.5360148e-05 -2.6730556e-05 1.6745296e-06)
(-4.2655416e-05 -1.6384755e-06 -2.1551527e-06)
(6.6802685e-06 -2.3455906e-05 2.7972272e-06)
(-2.2343247e-06 -2.6324537e-05 2.7587429e-06)
(-1.2502203e-05 -2.402414e-05 2.0535353e-06)
(-2.1209338e-05 -1.5218167e-05 6.8356096e-07)
(-2.5319225e-05 -1.7245054e-06 -9.6421421e-07)
(3.8460936e-06 -1.5153626e-05 1.4301674e-06)
(-1.967176e-06 -1.6306338e-05 1.3517993e-06)
(-8.103098e-06 -1.4372361e-05 9.5779551e-07)
(-1.3060515e-05 -9.0552304e-06 2.9463276e-07)
(-1.5492583e-05 -1.4138311e-06 -4.4885569e-07)
(2.2725559e-06 -9.7236756e-06 7.4704943e-07)
(-1.4530597e-06 -1.0197025e-05 6.589216e-07)
(-5.2510966e-06 -8.7738649e-06 4.1186456e-07)
(-8.2508081e-06 -5.5013133e-06 7.0590863e-08)
(-9.6817948e-06 -1.0140564e-06 -2.8661249e-07)
(2.5037017e-05 -6.0470504e-05 1.0845726e-06)
(3.2554019e-06 -8.087278e-05 4.1289072e-07)
(-3.1575457e-05 -8.4891747e-05 -5.0420963e-07)
(-6.6298065e-05 -5.5174319e-05 -1.0249049e-06)
(-7.9743407e-05 4.355708e-06 -7.6978547e-07)
(1.2631982e-05 -3.8848802e-05 2.2369585e-07)
(-1.7343528e-06 -4.6528697e-05 -3.8758272e-08)
(-2.0443754e-05 -4.4567901e-05 -3.949919e-07)
(-3.7306386e-05 -2.8035663e-05 -5.3271918e-07)
(-4.4396617e-05 -2.8625823e-07 -2.9856524e-07)
(6.8085016e-06 -2.4723817e-05 -6.8998872e-08)
(-2.4636993e-06 -2.7659274e-05 -1.5255649e-07)
(-1.3082426e-05 -2.5077903e-05 -2.6302345e-07)
(-2.2016425e-05 -1.5591098e-05 -2.5969208e-07)
(-2.5995672e-05 -1.1972793e-06 -8.5749358e-08)
(3.8836204e-06 -1.571447e-05 -1.3469468e-07)
(-2.0884392e-06 -1.688266e-05 -1.5509573e-07)
(-8.3755791e-06 -1.4807661e-05 -1.71458e-07)
(-1.3425764e-05 -9.1943795e-06 -1.3406898e-07)
(-1.5770012e-05 -1.211689e-06 -4.0711893e-08)
(2.2771561e-06 -9.9890309e-06 -7.2349197e-08)
(-1.5568905e-06 -1.0474699e-05 -1.0891571e-07)
(-5.3941462e-06 -8.9956919e-06 -1.1503078e-07)
(-8.4204541e-06 -5.5855384e-06 -8.1411009e-08)
(-9.8183894e-06 -9.3397751e-07 -1.8553672e-08)
(2.3255738e-05 -5.79821e-05 -9.6160253e-06)
(1.6878158e-06 -7.4697229e-05 -1.2557251e-05)
(-3.0542536e-05 -7.597533e-05 -1.2834287e-05)
(-6.149728e-05 -4.8644228e-05 -7.4828641e-06)
(-7.3064534e-05 1.9630953e-06 2.9662512e-06)
(1.2054074e-05 -3.7303495e-05 -5.3677617e-06)
(-2.0176288e-06 -4.3898542e-05 -6.1577829e-06)
(-1.9703428e-05 -4.1419659e-05 -5.6590222e-06)
(-3.5263722e-05 -2.5965344e-05 -3.0086912e-06)
(-4.1707152e-05 -9.5443943e-07 1.3441011e-06)
(6.630139e-06 -2.3814296e-05 -3.0009519e-06)
(-2.4283493e-06 -2.6440875e-05 -3.155881e-06)
(-1.2609339e-05 -2.3800606e-05 -2.6750327e-06)
(-2.1032064e-05 -1.4819517e-05 -1.3080805e-06)
(-2.4775029e-05 -1.466652e-06 6.7251346e-07)
(3.8186452e-06 -1.5156977e-05 -1.6824549e-06)
(-2.0039393e-06 -1.6262697e-05 -1.6730092e-06)
(-8.0820713e-06 -1.4224368e-05 -1.3302745e-06)
(-1.2929768e-05 -8.8769493e-06 -6.0731736e-07)
(-1.5166913e-05 -1.3466354e-06 3.5155182e-07)
(2.2495367e-06 -9.6606085e-06 -9.4398633e-07)
(-1.4957413e-06 -1.0142376e-05 -9.0296916e-07)
(-5.2235919e-06 -8.7143181e-06 -6.8729501e-07)
(-8.154331e-06 -5.442919e-06 -2.8896152e-07)
(-9.4902784e-06 -9.7820318e-07 2.2457057e-07)
(1.9605773e-05 -4.8842623e-05 -1.6928838e-05)
(3.7139899e-08 -6.007612e-05 -2.0126765e-05)
(-2.6501072e-05 -5.8695923e-05 -1.8999443e-05)
(-5.0497529e-05 -3.7362934e-05 -1.0309789e-05)
(-5.966881e-05 -2.0291291e-06 4.554578e-06)
(1.0782878e-05 -3.2233728e-05 -9.3204088e-06)
(-2.0256136e-06 -3.7127327e-05 -1.0200187e-05)
(-1.7294662e-05 -3.4408647e-05 -8.841987e-06)
(-3.0303263e-05 -2.186088e-05 -4.4067501e-06)
(-3.5897313e-05 -2.5799962e-06 2.1933557e-06)
(6.1879082e-06 -2.1038511e-05 -5.1046523e-06)
(-2.1377801e-06 -2.31745e-05 -5.2664293e-06)
(-1.1234626e-05 -2.0749155e-05 -4.2856686e-06)
(-1.8668879e-05 -1.3189724e-05 -1.9961938e-06)
(-2.2086518e-05 -2.1898287e-06 1.1102241e-06)
(3.6677433e-06 -1.3657504e-05 -2.8141596e-06)
(-1.7362587e-06 -1.4629748e-05 -2.7718353e-06)
(-7.3098872e-06 -1.2819923e-05 -2.1532292e-06)
(-1.1743937e-05 -8.1752606e-06 -9.4194511e-07)
(-1.3838133e-05 -1.6596319e-06 6.237748e-07)
(2.206476e-06 -8.8473086e-06 -1.5866754e-06)
(-1.3001992e-06 -9.3061881e-06 -1.5073576e-06)
(-4.7801385e-06 -8.03867e-06 -1.128205e-06)
(-7.5085886e-06 -5.1162506e-06 -4.4997006e-07)
(-8.7706613e-06 -1.102941e-06 3.888981e-07)
(1.6112718e-05 -3.6873764e-05 -1.9420046e-05)
(-3.8278956e-07 -4.4461323e-05 -2.1692374e-05)
(-2.0725561e-05 -4.1863839e-05 -1.9100475e-05)
(-3.7943261e-05 -2.7135198e-05 -9.5745624e-06)
(-4.5181277e-05 -5.9484615e-06 4.6485505e-06)
(9.4087933e-06 -2.5479309e-05 -1.0840495e-05)
(-1.5392072e-06 -2.9038206e-05 -1.1441821e-05)
(-1.3909992e-05 -2.6705884e-05 -9.4780411e-06)
(-2.4228379e-05 -1.7651749e-05 -4.4805328e-06)
(-2.910909e-05 -4.3987936e-06 2.3655141e-06)
(5.6753988e-06 -1.7308047e-05 -6.014679e-06)
(-1.6093656e-06 -1.9012523e-05 -6.0660399e-06)
(-9.3391036e-06 -1.7111848e-05 -4.7891831e-06)
(-1.5636171e-05 -1.1354712e-05 -2.1475373e-06)
(-1.877107e-05 -3.036233e-06 1.2670466e-06)
(3.4919307e-06 -1.1639e-05 -3.3372658e-06)
(-1.3430089e-06 -1.2503625e-05 -3.2423598e-06)
(-6.2521811e-06 -1.1066905e-05 -2.462477e-06)
(-1.0152764e-05 -7.3307256e-06 -1.0298027e-06)
(-1.2132017e-05 -2.0679614e-06 7.5752717e-07)
(2.140396e-06 -7.7486089e-06 -1.859822e-06)
(-1.0372709e-06 -8.2029022e-06 -1.7553116e-06)
(-4.1662044e-06 -7.1558065e-06 -1.2767581e-06)
(-6.6372279e-06 -4.6975168e-06 -4.6036052e-07)
(-7.8311369e-06 -1.301782e-06 5.3094537e-07)
)
;

boundaryField
{
    movingWall
    {
        type            fixedValue;
        value           nonuniform 0();
    }
    CPLReceiveMD
    {
        type            fixedValue;
        value           nonuniform 0();
    }
    streamwiseIn
    {
        type            cyclic;
    }
    streamwiseOut
    {
        type            cyclic;
    }
    front
    {
        type            cyclic;
    }
    back
    {
        type            cyclic;
    }
    procBoundary4to1
    {
        type            processor;
        value           nonuniform List<vector> 
25
(
(4.9225402e-05 -7.7048346e-05 2.268119e-05)
(2.0386785e-05 -0.00012479127 2.9004166e-05)
(-4.1996153e-05 -0.00014662111 2.931005e-05)
(-0.00011212153 -0.00010113406 1.5223018e-05)
(-0.00013893065 1.0825604e-05 -1.2535589e-05)
(5.340402e-05 -9.1083802e-05 3.9271713e-06)
(2.2686895e-05 -0.00014610776 1.8479959e-06)
(-4.6142208e-05 -0.00017681578 -4.8400884e-07)
(-0.00012655383 -0.00012380947 -1.9122751e-06)
(-0.00015491223 2.3079613e-05 -1.5646155e-06)
(4.7775266e-05 -8.7567324e-05 -1.6995643e-05)
(1.5975604e-05 -0.00012956134 -2.6954442e-05)
(-4.5756424e-05 -0.00014756614 -3.1854847e-05)
(-0.00011320214 -9.9524589e-05 -2.0820077e-05)
(-0.00013572532 1.3048471e-05 7.7289369e-06)
(3.7165237e-05 -7.1805418e-05 -3.0428745e-05)
(7.8276883e-06 -9.6648012e-05 -4.0436093e-05)
(-4.0007846e-05 -0.00010238101 -4.2953478e-05)
(-8.6970054e-05 -6.5991344e-05 -2.5915781e-05)
(-0.00010213121 2.0721384e-06 1.0104911e-05)
(2.8504698e-05 -5.1673431e-05 -3.4288886e-05)
(3.4508693e-06 -6.8277192e-05 -4.1104655e-05)
(-3.1236116e-05 -6.5314202e-05 -3.9112327e-05)
(-6.0143755e-05 -3.9780876e-05 -2.0938893e-05)
(-6.9688274e-05 -7.0910383e-06 9.5784718e-06)
)
;
    }
    procBoundary4to3
    {
        type            processor;
        value           nonuniform List<vector> 
25
(
(3.173898e-05 -3.5789091e-05 8.2961151e-06)
(2.0343959e-05 -2.6287702e-05 4.3481483e-06)
(1.3082005e-05 -1.7966616e-05 2.3045205e-06)
(8.4424949e-06 -1.1898625e-05 1.2255687e-06)
(5.4013358e-06 -7.8079624e-06 7.2108669e-07)
(3.4180624e-05 -4.0100745e-05 8.8281558e-07)
(2.1359258e-05 -2.8300182e-05 1.1118381e-07)
(1.3503171e-05 -1.8910913e-05 -1.0242695e-07)
(8.6089147e-06 -1.2351314e-05 -1.2764731e-07)
(5.5008164e-06 -7.9872431e-06 -8.5896474e-08)
(3.3796354e-05 -3.8976038e-05 -7.1260067e-06)
(2.1035523e-05 -2.7272945e-05 -4.3086795e-06)
(1.3271757e-05 -1.8205447e-05 -2.5352876e-06)
(8.4586382e-06 -1.1882095e-05 -1.4571321e-06)
(5.4197041e-06 -7.7027541e-06 -8.3228913e-07)
(3.0693673e-05 -3.3693763e-05 -1.2983746e-05)
(1.9473123e-05 -2.3709463e-05 -7.5549071e-06)
(1.2471545e-05 -1.6059365e-05 -4.3116892e-06)
(8.0350554e-06 -1.0648316e-05 -2.4451209e-06)
(5.1845571e-06 -7.0203147e-06 -1.3982169e-06)
(2.6351057e-05 -2.536542e-05 -1.522057e-05)
(1.7268103e-05 -1.8600888e-05 -8.880363e-06)
(1.1349483e-05 -1.309566e-05 -5.0948739e-06)
(7.4509092e-06 -8.9686223e-06 -2.9117207e-06)
(4.8609389e-06 -6.0842354e-06 -1.6812795e-06)
)
;
    }
    procBoundary4to5
    {
        type            processor;
        value           nonuniform List<vector> 
25
(
(-6.3518482e-05 4.6251467e-05 -1.1974012e-05)
(-3.8281814e-05 2.2794181e-05 -5.0238119e-06)
(-2.3447794e-05 1.1944667e-05 -2.2533668e-06)
(-1.4621522e-05 6.5821999e-06 -1.0867424e-06)
(-9.2061509e-06 3.7635637e-06 -5.4100277e-07)
(-6.5106316e-05 5.5341308e-05 7.5452065e-07)
(-3.8948279e-05 2.5712076e-05 4.1554497e-07)
(-2.3745532e-05 1.3035508e-05 2.8450374e-07)
(-1.4738307e-05 6.982903e-06 1.9160175e-07)
(-9.255437e-06 3.9185667e-06 1.1010548e-07)
(-6.0342082e-05 4.5373952e-05 1.2591734e-05)
(-3.6804217e-05 2.2324164e-05 5.4906127e-06)
(-2.2726117e-05 1.1720724e-05 2.6010735e-06)
(-1.4205875e-05 6.4078016e-06 1.3245609e-06)
(-8.9695383e-06 3.6294857e-06 7.5876657e-07)
(-5.1533599e-05 2.8870966e-05 1.757347e-05)
(-3.2581102e-05 1.5721415e-05 8.1913127e-06)
(-2.0622878e-05 8.8694563e-06 4.0077655e-06)
(-1.3119127e-05 5.140596e-06 2.0929504e-06)
(-8.397047e-06 3.0033881e-06 1.2091715e-06)
(-4.169058e-05 1.3443989e-05 1.6931446e-05)
(-2.7573885e-05 8.7584596e-06 8.5311757e-06)
(-1.8028395e-05 5.6223615e-06 4.4213006e-06)
(-1.1767192e-05 3.6092075e-06 2.3748379e-06)
(-7.658328e-06 2.2022367e-06 1.2840039e-06)
)
;
    }
    procBoundary4to7
    {
        type            processor;
        value           nonuniform List<vector> 
25
(
(1.457031e-06 -6.1788255e-06 4.5007738e-07)
(-1.0173654e-06 -6.4124999e-06 3.6102012e-07)
(-3.4073866e-06 -5.4678209e-06 2.2798057e-07)
(-5.3007061e-06 -3.411628e-06 6.2439188e-08)
(-6.2277064e-06 -6.1831245e-07 -1.2772354e-07)
(1.396164e-06 -6.3470544e-06 -7.1627597e-08)
(-1.0951002e-06 -6.540926e-06 -1.0044646e-07)
(-3.4864182e-06 -5.5457395e-06 -1.1191114e-07)
(-5.3640495e-06 -3.4293572e-06 -7.5674655e-08)
(-6.2659065e-06 -5.7342018e-07 -4.8586848e-09)
(1.3790236e-06 -6.1896035e-06 -5.4073265e-07)
(-1.0576489e-06 -6.3736788e-06 -5.044979e-07)
(-3.3826148e-06 -5.4080384e-06 -3.7325262e-07)
(-5.1936537e-06 -3.3611951e-06 -1.3802951e-07)
(-6.094508e-06 -6.0717905e-07 1.8258836e-07)
(1.3818698e-06 -5.7549947e-06 -9.0216003e-07)
(-9.2762022e-07 -5.9532784e-06 -8.3236186e-07)
(-3.1199498e-06 -5.0827897e-06 -5.9471765e-07)
(-4.8082085e-06 -3.2213924e-06 -1.9654293e-07)
(-5.7184948e-06 -7.0727883e-07 3.0019602e-07)
(1.3732639e-06 -5.1537084e-06 -1.0831743e-06)
(-7.5020657e-07 -5.3735182e-06 -9.9907237e-07)
(-2.7467958e-06 -4.6383291e-06 -7.2241218e-07)
(-4.29874e-06 -3.0286971e-06 -2.7873497e-07)
(-5.2322636e-06 -8.2579592e-07 2.2766644e-07)
)
;
    }
    procBoundary4to13
    {
        type            processor;
        value           nonuniform List<vector> 
25
(
(1.3133969e-05 -2.5394232e-05 -1.7569223e-05)
(3.5671028e-07 -3.0413286e-05 -1.8949682e-05)
(-1.438326e-05 -2.9061638e-05 -1.5682788e-05)
(-2.6748504e-05 -2.0904574e-05 -7.1653159e-06)
(-3.3162803e-05 -9.2420877e-06 3.9635162e-06)
(8.2214203e-06 -1.8828361e-05 -1.0064588e-05)
(-6.631602e-07 -2.1500992e-05 -1.0341156e-05)
(-1.0333375e-05 -2.0097356e-05 -8.2391281e-06)
(-1.8459709e-05 -1.4433855e-05 -3.6637016e-06)
(-2.2885605e-05 -5.9615004e-06 2.1568736e-06)
(5.2167422e-06 -1.3535282e-05 -5.721575e-06)
(-9.1228421e-07 -1.4975039e-05 -5.654442e-06)
(-7.3161231e-06 -1.3733591e-05 -4.3481102e-06)
(-1.261265e-05 -9.7389944e-06 -1.8476821e-06)
(-1.551768e-05 -3.7978157e-06 1.238574e-06)
(3.3371041e-06 -9.5026469e-06 -3.2258185e-06)
(-8.6146996e-07 -1.031902e-05 -3.0966618e-06)
(-5.0973302e-06 -9.307498e-06 -2.2983749e-06)
(-8.5239333e-06 -6.4880838e-06 -9.1210152e-07)
(-1.0433493e-05 -2.3957332e-06 7.3734626e-07)
(2.1324439e-06 -6.593217e-06 -1.8093412e-06)
(-7.1713538e-07 -7.0629007e-06 -1.6852223e-06)
(-3.4851874e-06 -6.2986052e-06 -1.2064157e-06)
(-5.7008851e-06 -4.3651829e-06 -4.3139118e-07)
(-7.0262969e-06 -1.6328017e-06 4.8428711e-07)
)
;
    }
    procBoundary4to22throughfront
    {
        type            processorCyclic;
        value           nonuniform List<vector> 
25
(
(2.0664692e-05 -4.3363994e-05 1.6585345e-05)
(1.1159949e-05 -3.050977e-05 8.8729382e-06)
(6.3542792e-06 -2.0579305e-05 4.7601068e-06)
(3.7573899e-06 -1.3664292e-05 2.5887419e-06)
(2.3393211e-06 -9.0089409e-06 1.3922194e-06)
(3.3259863e-06 -5.7688794e-05 1.8644356e-05)
(-7.5375919e-07 -3.6619e-05 9.2517277e-06)
(-1.7200075e-06 -2.3190892e-05 4.7078434e-06)
(-1.6160673e-06 -1.4782838e-05 2.4569722e-06)
(-1.2217056e-06 -9.4839203e-06 1.2767832e-06)
(-2.3622111e-05 -6.0175782e-05 1.6020122e-05)
(-1.6298103e-05 -3.5555763e-05 7.3495514e-06)
(-1.1007244e-05 -2.1441613e-05 3.5323265e-06)
(-7.3184126e-06 -1.316599e-05 1.7560593e-06)
(-4.8058154e-06 -8.265877e-06 8.6879556e-07)
(-5.0235765e-05 -4.1625829e-05 6.5512797e-06)
(-3.0557148e-05 -2.4004131e-05 2.7139055e-06)
(-1.8998676e-05 -1.4211201e-05 1.2111778e-06)
(-1.2019113e-05 -8.5814094e-06 5.5714945e-07)
(-7.7219771e-06 -5.3533449e-06 2.2603162e-07)
(-6.3054302e-05 -6.0247294e-06 -7.4890763e-06)
(-3.7698275e-05 -4.318671e-06 -3.429433e-06)
(-2.3058744e-05 -2.9035765e-06 -1.653885e-06)
(-1.4388636e-05 -1.8892908e-06 -8.2288855e-07)
(-9.2067958e-06 -1.2551097e-06 -4.9318979e-07)
)
;
    }
}


// ************************************************************************* //
