/*--------------------------------*- C++ -*----------------------------------*\
| =========                 |                                                 |
| \\      /  F ield         | OpenFOAM: The Open Source CFD Toolbox           |
|  \\    /   O peration     | Version:  3.0.1                                 |
|   \\  /    A nd           | Web:      www.OpenFOAM.org                      |
|    \\/     M anipulation  |                                                 |
\*---------------------------------------------------------------------------*/
FoamFile
{
    version     2.0;
    format      ascii;
    class       volScalarField;
    location    "0.1";
    object      p;
}
// * * * * * * * * * * * * * * * * * * * * * * * * * * * * * * * * * * * * * //

dimensions      [0 2 -2 0 0 0 0];

internalField   nonuniform List<scalar> 
125
(
-1.8622556e-05
-0.026635748
-0.055985621
-0.062902295
-0.037561328
-0.0097576289
-0.029842688
-0.046597553
-0.050334463
-0.042191157
-0.022418843
-0.033568662
-0.043079681
-0.046689564
-0.046237974
-0.032615494
-0.037989975
-0.043378115
-0.046705734
-0.048757576
-0.039699035
-0.042078937
-0.045141557
-0.047807332
-0.050222798
-0.001650522
-0.003486466
-0.02840268
-0.10942393
-0.048484663
-0.0051263024
-0.021011546
-0.038809147
-0.058232447
-0.048773846
-0.020305664
-0.030185142
-0.040401235
-0.048265562
-0.049190502
-0.032099146
-0.036861037
-0.042474645
-0.047085271
-0.049884472
-0.039745038
-0.041803116
-0.044886826
-0.047925268
-0.050605344
0.04500064
-0.0068245746
-0.041634844
-0.072531983
-0.06295841
0.0072046039
-0.018624993
-0.038233739
-0.053763156
-0.05573843
-0.017582238
-0.028980338
-0.039592708
-0.048007506
-0.051918776
-0.031855817
-0.036611289
-0.042243956
-0.047264058
-0.050902011
-0.040034524
-0.041918923
-0.044928318
-0.048087146
-0.050964562
0.014079603
-0.017439329
-0.033582929
-0.05605873
-0.11788831
-0.0031691509
-0.023935102
-0.036992499
-0.049828747
-0.065529672
-0.021466499
-0.031295766
-0.039674715
-0.047247651
-0.054048974
-0.033670257
-0.037790669
-0.042591995
-0.047273515
-0.051487098
-0.04103537
-0.042624649
-0.045275267
-0.048238445
-0.051158513
-0.01079667
-0.061004325
-0.029039747
-0.018215653
-0.052759689
-0.016183209
-0.036101834
-0.036703917
-0.039376566
-0.052930381
-0.027629344
-0.035909305
-0.040322219
-0.044650437
-0.051255343
-0.036645999
-0.039946181
-0.043303339
-0.046803775
-0.050805237
-0.042552239
-0.043763912
-0.045823228
-0.048286705
-0.051001741
)
;

boundaryField
{
    movingWall
    {
        type            zeroGradient;
    }
    CPLReceiveMD
    {
        type            zeroGradient;
    }
    streamwiseIn
    {
        type            cyclic;
    }
    streamwiseOut
    {
        type            cyclic;
    }
    front
    {
        type            cyclic;
    }
    back
    {
        type            cyclic;
    }
    procBoundary0to1
    {
        type            processor;
        value           nonuniform List<scalar> 
25
(
-0.039511765
-0.043947463
-0.049408855
-0.052167827
-0.053190586
0.013642829
-0.038798406
-0.050072899
-0.052802261
-0.053421751
-0.043527834
-0.051511664
-0.053633797
-0.053886599
-0.053709055
-0.081596954
-0.062701385
-0.056840275
-0.05472246
-0.053860301
-0.072922016
-0.062986561
-0.056832436
-0.054490702
-0.053655749
)
;
    }
    procBoundary0to2throughstreamwiseIn
    {
        type            processorCyclic;
        value           nonuniform List<scalar> 
25
(
0.050961601
0.012984322
-0.014498812
-0.030644186
-0.039775303
0.047443473
0.0148248
-0.014368322
-0.031190529
-0.040323275
0.20628954
0.042769105
-0.010079953
-0.031124151
-0.040837329
0.091651832
0.021307165
-0.015460762
-0.033216995
-0.041925635
0.05828719
0.0079175885
-0.021621383
-0.036188475
-0.043414505
)
;
    }
    procBoundary0to3
    {
        type            processor;
        value           nonuniform List<scalar> 
25
(
-0.044342174
-0.045329403
-0.047092313
-0.049042778
-0.05108828
-0.044513599
-0.045330593
-0.047050513
-0.049085993
-0.051198013
-0.044842502
-0.045528268
-0.047167539
-0.049197643
-0.051316916
-0.045436473
-0.045982269
-0.047443486
-0.049341908
-0.051390511
-0.04623232
-0.046621388
-0.047828396
-0.049486701
-0.051376203
)
;
    }
    procBoundary0to9
    {
        type            processor;
        value           nonuniform List<scalar> 
25
(
-0.024657128
-0.058937828
-0.032192761
-0.011737545
-0.044796111
-0.027306196
-0.042892724
-0.038421096
-0.033926153
-0.04567834
-0.0339666
-0.04019037
-0.041672828
-0.042855015
-0.048272009
-0.039907645
-0.042272624
-0.04430817
-0.046495828
-0.049805834
-0.044194222
-0.045022436
-0.046514817
-0.048405173
-0.050723561
)
;
    }
    procBoundary0to18throughfront
    {
        type            processorCyclic;
        value           nonuniform List<scalar> 
25
(
-0.011432523
-0.014064588
-0.023737458
-0.032857976
-0.039644216
-0.052283751
-0.041463334
-0.037871331
-0.039427237
-0.042521818
-0.09361526
-0.061554299
-0.047842969
-0.044866449
-0.045633718
-0.044997729
-0.045383567
-0.045495979
-0.046488198
-0.047826931
0.00073480002
-0.026282656
-0.041223512
-0.047327746
-0.049867842
)
;
    }
}


// ************************************************************************* //
