/*--------------------------------*- C++ -*----------------------------------*\
| =========                 |                                                 |
| \\      /  F ield         | OpenFOAM: The Open Source CFD Toolbox           |
|  \\    /   O peration     | Version:  3.0.1                                 |
|   \\  /    A nd           | Web:      www.OpenFOAM.org                      |
|    \\/     M anipulation  |                                                 |
\*---------------------------------------------------------------------------*/
FoamFile
{
    version     2.0;
    format      ascii;
    class       surfaceScalarField;
    location    "0.1";
    object      phi;
}
// * * * * * * * * * * * * * * * * * * * * * * * * * * * * * * * * * * * * * //

dimensions      [0 3 -1 0 0 0 0];

internalField   nonuniform List<scalar> 
300
(
0.12677535
0.019461311
0.0032152027
0.11540599
0.0064016594
-0.046255204
0.11419641
-0.018759944
-0.055111235
0.082196023
-0.025114166
0.092887771
0.0092535614
0.021865477
0.040183543
0.025309127
-0.0092705089
0.033510144
0.00744559
-0.017659795
0.007496209
-0.0070354125
-0.015576296
-0.016238505
-0.0072913972
0.015784682
0.0080920637
0.013172141
0.02229473
0.020389137
-0.0042258227
0.019016536
0.0088412231
-0.0067653241
0.0072191207
0.00059619239
-0.0053563862
-0.00089905517
3.1533155e-05
0.0031506075
0.0050397603
0.0059062329
0.01074637
0.014168045
-0.0010317671
0.010773516
0.0081789169
-0.0022569464
0.0066537629
0.0035276817
-0.0018065465
0.004103126
0.0022037888
0.00075896874
0.0029312596
0.0022539914
0.0047589886
9.2160142e-05
0.0061233067
-0.00055161652
0.005329019
-0.00050959168
0.004827975
0.00023572577
0.00076516032
0.46713984
0.0069726222
-0.093175247
0.37917072
0.035008598
0.0066503886
0.2768761
0.02076959
0.026398945
0.54564556
-0.10223838
-0.073649289
0.00057757302
0.028923869
0.031888177
0.030352978
-0.024643444
0.035673018
0.018340724
-0.0047736757
0.038849314
0.0031774746
-0.0011567838
-0.018731238
-0.019923116
-0.0089289075
0.00083331073
0.013930673
0.019755319
0.023584652
-0.0054420132
0.02042796
0.013352092
-0.0024085174
0.015722871
0.0041476084
-0.0016173565
0.001853015
-0.0023646214
-0.00051488971
0.0013882204
0.0054561458
0.0095214465
0.015292903
-0.0004852627
0.011224442
0.0098851842
-0.00049889358
0.0092184138
0.0048251772
-0.00046118661
0.0055972186
0.0016798038
0.00035776982
0.0014421279
0.0020348515
0.0041153475
0.00057913379
0.0061654804
0.0002315262
0.0060741553
8.2790529e-05
0.0053572056
0.00032361537
0.00071835861
0.12111999
0.075546039
0.061757532
0.082973743
0.023587875
0.021208008
0.13227158
-0.0067887692
-0.016084509
0.12904187
-0.037501604
-0.032903095
-0.014436844
0.10967308
0.051664997
0.049573083
0.02072994
0.03921959
0.020708626
0.010618395
0.031066407
0.0027190818
-0.0024813913
0.0039909823
-0.011511802
-0.007873933
-0.007642314
0.019563622
0.022792124
0.028549809
0.0077643908
0.021221753
0.015262243
0.0046296783
0.016825398
0.0053023495
0.00016404205
0.0078219729
-0.0014884706
-0.0015204048
-0.0020342061
0.0042572133
0.0095085889
0.016359574
0.003628022
0.011262915
0.010616257
0.0023585101
0.01003735
0.0053692497
0.0006962421
0.0072737233
0.0016461042
1.897531e-05
0.00012506782
0.0011695633
0.0037679755
0.0020015255
0.0060169719
0.0014113643
0.0063149621
0.00069391064
0.0057517604
0.00030261336
0.00038770833
0.22749853
0.034491374
0.049721384
0.14875989
0.012980224
0.087013375
0.13495432
0.006812341
-0.0090705184
0.19010139
-0.012454549
-0.075597082
-0.10457332
-0.13004934
0.041569518
0.0365932
0.026023028
0.026147489
0.014716925
0.024323282
0.025694758
0.0053639488
-0.00057652488
0.031400381
-0.0051637683
-0.020895421
-0.022951227
-0.025177512
0.01965445
0.024408533
0.012323135
0.016756909
0.012989643
0.0092247092
0.015143579
0.0058350933
0.001295331
0.013597757
5.1456174e-05
-0.0051920292
-0.0051282137
-0.0055834264
0.0082388107
0.014732026
0.0059505636
0.0096009445
0.0096686885
0.0043104953
0.0093604955
0.0053670982
0.0014230012
0.008423849
0.0019300021
-0.00093863488
-0.00065791598
-0.0013628992
0.0031778677
0.0030335707
0.0052996257
0.0022785052
0.0059236916
0.0010961484
0.0058366872
9.6827887e-05
-0.00031345233
0.29861569
0.010778689
0.43944169
-0.049726623
0.40883729
0.015309873
0.3039578
0.042267382
0.0003292411
0.039875546
0.022889004
0.0013445635
-0.00038090868
0.0054572686
0.0072354196
0.027153391
0.010545872
-0.0033528174
0.016555744
0.018033548
0.0088277364
0.0080713324
0.0086560791
0.0059634468
0.013204732
0.0043094737
-0.00090023329
0.0065988375
0.011814052
0.0067135189
0.0076356792
0.0069988037
0.0050404618
0.0079990772
0.0029667772
0.0003929936
0.0024228834
0.0041172919
0.0049242802
0.0054261888
)
;

boundaryField
{
    movingWall
    {
        type            calculated;
        value           nonuniform 0();
    }
    CPLReceiveMD
    {
        type            calculated;
        value           uniform 0;
    }
    streamwiseIn
    {
        type            cyclic;
        value           nonuniform 0();
    }
    streamwiseOut
    {
        type            cyclic;
        value           nonuniform 0();
    }
    front
    {
        type            cyclic;
        value           nonuniform 0();
    }
    back
    {
        type            cyclic;
        value           nonuniform 0();
    }
    procBoundary0to1
    {
        type            processor;
        value           nonuniform List<scalar> 
25
(
0.12756176
0.0035440816
0.0063416028
0.0068187723
0.0059323169
0.53796582
-0.019768443
0.0017677065
0.0058343975
0.0056298281
0.062708365
-0.0084188589
0.0034317879
0.0059677207
0.0054860162
0.53440785
-0.0054939465
0.0055833514
0.0064685746
0.0054002392
0.1894611
0.020153876
0.01115221
0.0073676676
0.0053040733
)
;
    }
    procBoundary0to2throughstreamwiseIn
    {
        type            processorCyclic;
        value           nonuniform List<scalar> 
25
(
-0.17230246
-0.045492879
-0.015833508
-0.0039406188
0.00015173668
-0.37781942
-0.039948529
-0.011866312
-0.0018152755
0.001155704
-0.35153596
-0.071084401
-0.014992058
-0.0014608787
0.0016049783
-0.24998145
-0.048943877
-0.012002026
-0.00090466841
0.0017798038
-0.28737898
-0.048226725
-0.01200984
-0.00091396624
0.0017236477
)
;
    }
    procBoundary0to3
    {
        type            processor;
        value           nonuniform List<scalar> 
25
(
0.009287362
0.0065016135
0.0039018613
0.0024711777
0.0017314945
0.0095380421
0.0070554792
0.0043276258
0.0023214853
0.0011855532
0.0096169789
0.0072191176
0.0044785346
0.0022209089
0.00070471487
0.0088030503
0.0067154634
0.0043363953
0.0022067759
0.00046383307
0.0073609119
0.0057148984
0.0040101356
0.0023999067
0.00074888902
)
;
    }
    procBoundary0to9
    {
        type            processor;
        value           nonuniform List<scalar> 
25
(
0.027716208
-0.0040938178
0.006300782
-0.012965953
-0.01593981
0.022242943
0.013589854
0.0034349088
-0.010906441
-0.014507346
0.012672231
0.0085618709
0.0027014622
-0.0035902777
-0.005965302
0.0065222111
0.0046524076
0.0020097959
-0.00061533888
-0.001998011
0.0032836553
0.0025168853
0.0013832136
0.00023707527
-0.00055621772
)
;
    }
    procBoundary0to18throughfront
    {
        type            processorCyclic;
        value           nonuniform List<scalar> 
25
(
0.022802866
0.0086052555
0.0026344603
0.00048381598
-0.00011014388
0.051264672
0.023237143
0.0086027802
0.0028733025
0.00088523189
0.075177038
0.029920434
0.0095255963
0.0029758846
0.00098391973
-0.035761661
-0.0099019187
-0.0023868573
-0.00043502409
3.9068863e-05
-0.076519164
-0.031822997
-0.010027782
-0.0028590432
-0.00070982223
)
;
    }
}


// ************************************************************************* //
