/*--------------------------------*- C++ -*----------------------------------*\
| =========                 |                                                 |
| \\      /  F ield         | OpenFOAM: The Open Source CFD Toolbox           |
|  \\    /   O peration     | Version:  3.0.1                                 |
|   \\  /    A nd           | Web:      www.OpenFOAM.org                      |
|    \\/     M anipulation  |                                                 |
\*---------------------------------------------------------------------------*/
FoamFile
{
    version     2.0;
    format      ascii;
    class       volVectorField;
    location    "0.1";
    object      U;
}
// * * * * * * * * * * * * * * * * * * * * * * * * * * * * * * * * * * * * * //

dimensions      [0 1 -1 0 0 0 0];

internalField   nonuniform List<vector> 
125
(
(0.00046733419 2.4323969e-05 -2.4478749e-05)
(0.00023416383 7.9946066e-06 -0.00012188791)
(0.00028006114 -2.3460925e-05 -0.00016290368)
(0.00026640269 -3.1410191e-05 0.0001608039)
(0.00029318996 1.157075e-05 0.00012302937)
(0.00010713395 5.5972182e-05 -2.2343233e-05)
(9.2103035e-05 1.7305992e-05 -5.1126486e-05)
(5.1264557e-05 -3.2256116e-05 -5.6860443e-05)
(-1.0943426e-05 -4.0522024e-05 3.2123159e-05)
(-1.5881082e-05 2.1687354e-05 5.622673e-05)
(4.7674358e-05 5.7126696e-05 -8.5765523e-06)
(5.1646054e-05 2.0362055e-05 -1.9212515e-05)
(3.2796743e-05 -8.0479855e-06 -1.8602393e-05)
(7.8911332e-06 -9.0699168e-06 6.9248206e-06)
(6.7946761e-06 1.6415996e-05 1.9916909e-05)
(1.836609e-05 4.3200049e-05 -1.8950938e-06)
(2.690467e-05 2.1278691e-05 -6.4138267e-06)
(2.1785226e-05 5.1595125e-06 -5.9785573e-06)
(1.3442507e-05 2.7981208e-06 1.4931985e-06)
(1.3648725e-05 9.9631192e-06 6.3919569e-06)
(5.7624376e-06 2.931943e-05 2.5247834e-07)
(1.3605512e-05 1.835242e-05 -1.7966676e-06)
(1.4316161e-05 9.2894424e-06 -1.8673313e-06)
(1.269472e-05 5.8454357e-06 2.4590956e-07)
(1.3448729e-05 5.8280795e-06 1.8440648e-06)
(0.0011687441 8.7301001e-06 -0.00011249955)
(0.0013424937 4.3763852e-05 -4.9521206e-05)
(0.0006357776 2.5947134e-05 -3.5865856e-05)
(0.00025430402 -0.00012780648 2.4047583e-05)
(0.0028252397 7.2125106e-07 6.3470971e-05)
(8.9849723e-05 4.6673869e-05 -4.2419727e-05)
(8.4514318e-05 6.6695535e-05 -2.8048463e-05)
(9.31352e-05 2.9927154e-05 -2.0909562e-05)
(2.49566e-05 -0.00015272313 8.5716863e-06)
(-4.7806342e-05 1.7631239e-06 3.3866898e-05)
(3.9542294e-05 6.7423874e-05 -1.2092453e-05)
(5.0233999e-05 3.9620625e-05 -1.14699e-05)
(4.5194916e-05 9.1646649e-06 -8.7160395e-06)
(2.1967566e-05 -2.7865999e-05 3.2953479e-06)
(4.5137962e-06 2.777474e-06 1.4201579e-05)
(1.4177971e-05 4.8597962e-05 -1.8985758e-06)
(2.5936609e-05 2.9046686e-05 -3.445879e-06)
(2.55558e-05 1.1217537e-05 -2.8347122e-06)
(1.8518183e-05 -8.4754436e-07 1.3961233e-06)
(1.428572e-05 3.5385323e-06 5.3612214e-06)
(3.7025695e-06 3.1037444e-05 8.3812218e-07)
(1.2853494e-05 2.1176074e-05 -4.0083269e-07)
(1.5300662e-05 1.1442378e-05 -5.3386974e-07)
(1.4288549e-05 5.0040342e-06 6.9909333e-07)
(1.3732365e-05 3.2849265e-06 1.8546324e-06)
(0.00060697873 9.4482862e-05 -3.9288195e-05)
(0.00022933928 2.949761e-05 3.4830186e-05)
(0.00021822675 -8.4856213e-06 1.2883831e-05)
(0.00035189686 -4.68977e-05 -0.00013316679)
(0.00036971304 -1.8064481e-05 0.00017325153)
(0.00015350412 0.00015644804 -4.9007347e-06)
(0.00011359284 5.5384982e-05 7.3055797e-06)
(8.7850897e-05 -5.0879564e-06 -4.5419319e-06)
(4.3829583e-05 -6.1286006e-05 -2.1009139e-05)
(-5.5219467e-06 -2.7613239e-05 4.1889213e-05)
(4.7251829e-05 9.7647857e-05 2.9001901e-06)
(5.5022463e-05 4.4964643e-05 2.7760793e-06)
(4.7561983e-05 1.0026867e-05 -1.8155374e-06)
(3.080875e-05 -1.6245481e-05 -2.5441491e-06)
(1.406067e-05 -1.2089685e-05 1.2145989e-05)
(1.3719661e-05 5.6130624e-05 3.927456e-06)
(2.5968533e-05 3.2347758e-05 2.3241924e-06)
(2.6627228e-05 1.3341682e-05 2.9399838e-07)
(2.1638441e-05 2.0186623e-07 4.7116053e-07)
(1.6549402e-05 -2.3838269e-06 4.0065034e-06)
(2.706683e-06 3.24674e-05 3.2254903e-06)
(1.223352e-05 2.2293758e-05 2.053443e-06)
(1.5416088e-05 1.2310716e-05 9.7087595e-07)
(1.5083223e-05 4.8356243e-06 7.8287993e-07)
(1.4046247e-05 1.0383427e-06 1.3828456e-06)
(0.00073662173 4.3142663e-05 0.00013939863)
(0.00047743186 1.6223802e-05 0.00013528172)
(0.00032054161 8.5154147e-06 -3.1432623e-05)
(0.00043663969 -1.5582371e-05 -0.00013563749)
(0.00017078091 -0.00013072788 -2.5471777e-05)
(0.00011322293 8.8885213e-05 5.8464672e-05)
(8.4644158e-05 3.4625242e-05 4.3689445e-05)
(6.4783762e-05 1.5221592e-05 -3.8248577e-06)
(7.1393043e-05 -2.2034066e-05 -3.5965754e-05)
(3.2204245e-05 -0.00015942901 -7.0196524e-06)
(3.9589168e-05 7.6252068e-05 2.5115218e-05)
(4.5518214e-05 3.4639236e-05 1.7321586e-05)
(3.9874678e-05 1.4000594e-05 1.8243703e-06)
(3.5929094e-05 -6.3856919e-06 -8.3917703e-06)
(2.397579e-05 -3.5105246e-05 -1.6581049e-06)
(1.1436493e-05 4.8923262e-05 1.1974842e-05)
(2.2303152e-05 2.832405e-05 8.3375685e-06)
(2.3702768e-05 1.400395e-05 2.6494613e-06)
(2.2230688e-05 2.4794847e-06 -1.1497902e-06)
(1.8614758e-05 -7.2246116e-06 -2.4179675e-07)
(1.7502626e-06 2.9416431e-05 6.2945235e-06)
(1.059888e-05 2.048011e-05 4.6130139e-06)
(1.4030099e-05 1.2129977e-05 2.2379542e-06)
(1.4700519e-05 5.1721873e-06 4.9938348e-07)
(1.4045647e-05 -2.404813e-07 9.2747997e-08)
(0.00042483914 1.3480812e-05 9.680237e-05)
(0.00091027569 -6.2161257e-05 0.00010367402)
(0.0015447634 1.9138026e-05 -3.4695998e-06)
(0.00055988639 5.2841596e-05 -0.00011074125)
(0.00081078897 3.9991066e-07 -0.00018249004)
(0.00011008251 4.2096105e-05 6.0338995e-05)
(5.1515973e-05 -6.2642006e-05 4.7391605e-05)
(8.59453e-06 2.8184864e-05 3.5710451e-06)
(4.0685326e-05 6.6027335e-05 -3.9755636e-05)
(5.9188467e-05 -3.7871038e-06 -4.9627315e-05)
(3.5722419e-05 5.1158018e-05 3.1247903e-05)
(3.1731668e-05 9.612758e-06 2.2235346e-05)
(2.1848726e-05 1.6501188e-05 4.9957897e-06)
(2.7326288e-05 1.8570491e-05 -1.0980385e-05)
(3.0448494e-05 -5.3118279e-06 -1.4441441e-05)
(9.3972622e-06 3.730993e-05 1.559276e-05)
(1.6643153e-05 1.9639186e-05 1.1204921e-05)
(1.7139869e-05 1.3755266e-05 4.2912591e-06)
(1.8747183e-05 9.09302e-06 -1.9433108e-06)
(1.9208704e-05 -6.3297401e-07 -4.2027419e-06)
(8.7632651e-07 2.3967656e-05 7.8975198e-06)
(8.1769505e-06 1.6689211e-05 5.9949985e-06)
(1.1302457e-05 1.1313516e-05 3.0995418e-06)
(1.2938016e-05 6.7080988e-06 4.1722734e-07)
(1.3412625e-05 1.4280621e-06 -1.0875794e-06)
)
;

boundaryField
{
    movingWall
    {
        type            fixedValue;
        value           nonuniform 0();
    }
    CPLReceiveMD
    {
        type            fixedValue;
        value           nonuniform List<vector> 
25
(
(0.54706897 0 0)
(2.0854112 0 0)
(0.14918229 0 0)
(0.9294737 0 0)
(0.25299411 0 0)
(0.18790841 0 0)
(2.5547898 0 0)
(0.024938503 0 0)
(0.717089 0 0)
(1.7311177 0 0)
(0.37909223 0 0)
(0.74302505 0 0)
(0.10788389 0 0)
(0.44774831 0 0)
(3.3078554 0 0)
(0.62552096 0 0)
(0.40704949 0 0)
(0.59775792 0 0)
(0.45255453 0 0)
(1.0016663 0 0)
(0.7026199 0 0)
(6.2751925 0 0)
(0.8840659 0 0)
(0.21229856 0 0)
(1.350191 0 0)
)
;
    }
    streamwiseIn
    {
        type            cyclic;
    }
    streamwiseOut
    {
        type            cyclic;
    }
    front
    {
        type            cyclic;
    }
    back
    {
        type            cyclic;
    }
    procBoundary0to1
    {
        type            processor;
        value           nonuniform List<vector> 
25
(
(0.00033506854 1.1112914e-05 -9.5997834e-05)
(3.6419442e-05 2.4765268e-05 4.3640078e-06)
(2.7827052e-05 2.0547914e-05 8.4766013e-06)
(2.2084077e-05 9.4521954e-06 3.8229462e-06)
(1.6833985e-05 3.128047e-06 1.1172947e-06)
(0.00015813637 0.00013092789 1.0063871e-05)
(8.538353e-06 0.00015911328 1.8908243e-05)
(1.8566683e-05 3.5008085e-05 1.0561337e-05)
(1.8724807e-05 8.3712198e-06 4.2968006e-06)
(1.5419657e-05 1.6232502e-06 1.2966112e-06)
(1.9187206e-05 1.9953337e-05 0.00023775366)
(-2.6337451e-06 2.5258334e-05 5.9756468e-05)
(1.4186669e-05 5.9364715e-06 1.6918033e-05)
(1.662172e-05 1.8747002e-07 4.8001978e-06)
(1.4230439e-05 -1.0053077e-06 1.0961615e-06)
(0.0027024983 -4.7187655e-05 7.3471682e-05)
(-1.8731178e-05 -6.1840918e-05 2.8686927e-05)
(1.2614189e-05 -1.99482e-05 7.9960391e-06)
(1.5704879e-05 -7.4506521e-06 1.5095115e-06)
(1.3317245e-05 -3.1602668e-06 -1.3423813e-07)
(0.00032452895 -2.4867842e-05 -5.5625836e-05)
(6.054352e-05 -4.0253856e-05 -1.8185899e-05)
(2.6127816e-05 -2.1240949e-05 -7.7966334e-06)
(1.7274521e-05 -7.9428072e-06 -3.7154276e-06)
(1.2766744e-05 -2.9430927e-06 -1.8127945e-06)
)
;
    }
    procBoundary0to2throughstreamwiseIn
    {
        type            processorCyclic;
        value           nonuniform List<vector> 
25
(
(0.00049130651 9.4935201e-05 -4.6282106e-06)
(8.1141535e-05 0.00016363812 -2.6535714e-06)
(6.1918101e-06 0.00010906158 4.4148268e-06)
(-9.6093649e-06 6.3190594e-05 4.6503161e-06)
(-1.0731435e-05 3.5807861e-05 3.1783629e-06)
(0.00053296029 8.1602275e-05 -0.00038773201)
(2.6264788e-05 0.00015458191 -7.4468196e-05)
(-1.1611781e-05 0.00011503231 -1.1047383e-05)
(-1.6204508e-05 6.4886346e-05 1.2005502e-06)
(-1.3243627e-05 3.5407206e-05 2.6549218e-06)
(0.00037227393 0.00040839936 -0.00011035841)
(2.4637992e-05 0.00054052008 -1.6211827e-05)
(-1.7918194e-05 0.00018473035 2.7291692e-06)
(-1.9236276e-05 7.6892899e-05 5.0656711e-06)
(-1.4415788e-05 3.6660841e-05 4.0057499e-06)
(0.0001571024 0.00017580754 0.00036940962)
(1.8331627e-05 0.00026772676 8.712408e-05)
(-1.564953e-05 0.00013630981 2.8850999e-05)
(-1.8117867e-05 6.6162927e-05 1.2659967e-05)
(-1.3921601e-05 3.2988057e-05 6.4433704e-06)
(0.001135174 0.00012592987 0.00018807593)
(8.4740519e-05 0.0001997777 8.2986986e-05)
(-1.2617402e-06 0.00011026621 3.6887171e-05)
(-1.4064135e-05 5.448527e-05 1.6863354e-05)
(-1.2353289e-05 2.7517774e-05 8.016923e-06)
)
;
    }
    procBoundary0to3
    {
        type            processor;
        value           nonuniform List<vector> 
25
(
(9.1064923e-07 1.9071098e-05 6.4893446e-07)
(6.8746823e-06 1.4060061e-05 -3.080294e-07)
(9.2782411e-06 8.9674229e-06 -5.2254731e-07)
(9.9811446e-06 5.695214e-06 -1.7635756e-08)
(1.0931336e-05 3.5255201e-06 3.9701042e-07)
(-5.3161175e-08 1.9343546e-05 1.2493942e-06)
(6.3415435e-06 1.4915625e-05 4.9545854e-07)
(9.3837601e-06 9.6582157e-06 1.8656134e-07)
(1.0360731e-05 5.4586994e-06 3.8631187e-07)
(1.0904936e-05 2.6245247e-06 5.7148461e-07)
(-6.4742231e-07 1.9237119e-05 2.3064435e-06)
(5.8118495e-06 1.5058226e-05 1.628229e-06)
(9.1690945e-06 9.8343825e-06 9.8159733e-07)
(1.0366068e-05 5.2360446e-06 6.3931373e-07)
(1.070847e-05 1.8133887e-06 4.8109565e-07)
(-1.071454e-06 1.7630921e-05 3.4750982e-06)
(5.0166973e-06 1.4018869e-05 2.7330218e-06)
(8.3948448e-06 9.4515311e-06 1.6522612e-06)
(9.8602292e-06 5.1206067e-06 7.2268426e-07)
(1.0282303e-05 1.405282e-06 1.4792268e-07)
(-1.4313005e-06 1.4933063e-05 4.0892614e-06)
(3.9890125e-06 1.2095276e-05 3.2974664e-06)
(7.1587569e-06 8.7077454e-06 2.018394e-06)
(8.8617293e-06 5.3108337e-06 7.5425024e-07)
(9.5575125e-06 1.8380453e-06 -1.7476568e-07)
)
;
    }
    procBoundary0to9
    {
        type            processor;
        value           nonuniform List<vector> 
25
(
(0.00052377842 6.6309709e-06 4.3288853e-05)
(0.00031935846 -4.0109794e-05 0.0001712915)
(0.00026163058 1.5558402e-05 3.7911496e-05)
(0.00011846123 5.5458956e-05 -0.00016770155)
(0.00028343638 2.2264029e-06 -7.7473546e-05)
(7.75955e-05 2.3282795e-05 4.516437e-05)
(2.786179e-05 -4.6864675e-05 5.0831931e-05)
(-2.2324409e-05 2.368902e-05 1.6122279e-05)
(1.8159944e-05 7.7782212e-05 -3.4821698e-05)
(5.3788181e-05 8.7107721e-06 -3.5569941e-05)
(2.4937335e-05 3.1505827e-05 2.7274801e-05)
(1.9266097e-05 -1.5474543e-06 2.1385568e-05)
(6.6589572e-06 1.4720809e-05 9.017487e-06)
(1.6491855e-05 3.1426641e-05 -6.4426615e-06)
(2.7159545e-05 1.0319338e-05 -1.2312279e-05)
(5.7780599e-06 2.5572878e-05 1.4407765e-05)
(1.1001651e-05 1.2083702e-05 1.0777534e-05)
(1.0554536e-05 1.2107702e-05 5.6467818e-06)
(1.3736687e-05 1.3877097e-05 -5.5462499e-08)
(1.6842641e-05 6.1292498e-06 -3.6938765e-06)
(-2.71662e-07 1.7912933e-05 7.3012289e-06)
(5.8009019e-06 1.2572655e-05 5.7604024e-06)
(8.4523278e-06 9.8571121e-06 3.5428329e-06)
(1.0513398e-05 7.8697483e-06 1.1098069e-06)
(1.1815625e-05 3.7874949e-06 -8.8558281e-07)
)
;
    }
    procBoundary0to18throughfront
    {
        type            processorCyclic;
        value           nonuniform List<vector> 
25
(
(0.00050257454 6.5815059e-06 -1.3789219e-05)
(0.00013812704 3.0759269e-05 -4.9661301e-06)
(6.3169587e-05 4.6975733e-05 -4.5653266e-07)
(2.5242114e-05 3.9768931e-05 5.1120028e-07)
(8.6776e-06 2.8493416e-05 4.3497963e-07)
(0.00069307031 -2.7058136e-05 -0.00015044667)
(0.00011883482 -3.6040242e-05 -5.8396421e-05)
(6.025979e-05 -5.0920415e-06 -1.9060297e-05)
(3.0020073e-05 1.1630839e-05 -6.1181533e-06)
(1.4973304e-05 1.5070277e-05 -2.0864754e-06)
(0.00025435781 -8.0176685e-05 -0.00058384925)
(9.8608665e-06 -0.0001144549 -0.00011956882)
(1.9057574e-05 -4.1717231e-05 -2.7688368e-05)
(1.7648775e-05 -5.5175249e-06 -7.6079308e-06)
(1.3258085e-05 5.9863683e-06 -2.5795308e-06)
(-0.00011308205 9.5528083e-07 6.0249603e-05)
(-8.8150461e-05 1.236745e-06 1.6839335e-05)
(-1.6551741e-05 2.7639709e-06 3.3658108e-06)
(6.1476686e-06 5.8313667e-06 -4.6787841e-08)
(1.0577153e-05 6.5148684e-06 -6.5944134e-07)
(7.2877422e-05 6.75846e-05 0.00060025709)
(-2.0798349e-05 0.00010493664 0.00012406222)
(2.961828e-06 5.2612255e-05 2.7246203e-05)
(1.1955973e-05 2.1611377e-05 5.9210514e-06)
(1.286098e-05 9.2798729e-06 1.0007317e-06)
)
;
    }
}


// ************************************************************************* //
