/*--------------------------------*- C++ -*----------------------------------*\
| =========                 |                                                 |
| \\      /  F ield         | OpenFOAM: The Open Source CFD Toolbox           |
|  \\    /   O peration     | Version:  3.0.1                                 |
|   \\  /    A nd           | Web:      www.OpenFOAM.org                      |
|    \\/     M anipulation  |                                                 |
\*---------------------------------------------------------------------------*/
FoamFile
{
    version     2.0;
    format      ascii;
    class       volScalarField;
    location    "0.1";
    object      p;
}
// * * * * * * * * * * * * * * * * * * * * * * * * * * * * * * * * * * * * * //

dimensions      [0 2 -2 0 0 0 0];

internalField   nonuniform List<scalar> 
125
(
-0.053323487
-0.053064873
-0.052740215
-0.052408726
-0.052131711
-0.053118383
-0.052943266
-0.052726753
-0.052504254
-0.052314076
-0.052983929
-0.052867748
-0.052722499
-0.052570113
-0.052435935
-0.052899996
-0.052824473
-0.052724907
-0.052615414
-0.05251566
-0.05285896
-0.052805668
-0.052728273
-0.052638382
-0.052554657
-0.053302824
-0.053054372
-0.052739704
-0.052418028
-0.052152036
-0.053107587
-0.052938959
-0.052728684
-0.052512961
-0.052331902
-0.052978794
-0.052866086
-0.052724465
-0.052577262
-0.052451435
-0.052899621
-0.052823247
-0.052724192
-0.052618316
-0.052525525
-0.052862984
-0.052804086
-0.052724395
-0.052636895
-0.052559037
-0.053292945
-0.053042288
-0.052727185
-0.052409621
-0.052151724
-0.053102416
-0.052933207
-0.052722888
-0.052509795
-0.05233359
-0.052976812
-0.052863035
-0.052721087
-0.052575468
-0.052452732
-0.052900406
-0.052821023
-0.052720505
-0.052615166
-0.052524421
-0.052865598
-0.052801949
-0.052719944
-0.052632535
-0.052556262
-0.053295649
-0.053032083
-0.052706745
-0.052384209
-0.052125447
-0.05310525
-0.052928547
-0.052711926
-0.052494504
-0.052315203
-0.052980745
-0.052861123
-0.052714199
-0.052564368
-0.052438177
-0.052904034
-0.052819306
-0.052714378
-0.052605537
-0.052512448
-0.052867758
-0.052799519
-0.052713915
-0.052624019
-0.052546457
-0.05331125
-0.053028214
-0.052683589
-0.052345258
-0.052077787
-0.053116398
-0.052927404
-0.052698521
-0.052469138
-0.052280173
-0.052989501
-0.052861115
-0.05270544
-0.052546532
-0.052412295
-0.052908193
-0.05281814
-0.052707282
-0.052592591
-0.052494805
-0.052867826
-0.05279749
-0.052707928
-0.052614351
-0.052534397
)
;

boundaryField
{
    movingWall
    {
        type            zeroGradient;
    }
    CPLReceiveMD
    {
        type            zeroGradient;
    }
    streamwiseIn
    {
        type            cyclic;
    }
    streamwiseOut
    {
        type            cyclic;
    }
    front
    {
        type            cyclic;
    }
    back
    {
        type            cyclic;
    }
    procBoundary17to8
    {
        type            processor;
        value           nonuniform List<scalar> 
25
(
-0.053345108
-0.053075657
-0.052733178
-0.052382064
-0.052088281
-0.053127974
-0.05294622
-0.052718811
-0.052484407
-0.052283731
-0.052991305
-0.052868308
-0.052714748
-0.052553497
-0.052411251
-0.052908687
-0.052825281
-0.052718033
-0.052600563
-0.052493249
-0.052869513
-0.05280795
-0.052722387
-0.052624426
-0.052533025
)
;
    }
    procBoundary17to14
    {
        type            processor;
        value           nonuniform List<scalar> 
25
(
-0.053642495
-0.053264836
-0.052771519
-0.05226256
-0.051843456
-0.053606621
-0.053239858
-0.052765157
-0.052278622
-0.051880299
-0.053587733
-0.053215607
-0.052742231
-0.052265162
-0.051881504
-0.053590019
-0.053196747
-0.052706874
-0.052222544
-0.051840988
-0.05361634
-0.053188981
-0.052666732
-0.052158099
-0.051761838
)
;
    }
    procBoundary17to15throughstreamwiseOut
    {
        type            processorCyclic;
        value           nonuniform List<scalar> 
25
(
-0.051956397
-0.052191735
-0.052345477
-0.052442185
-0.052488999
-0.051986972
-0.052215123
-0.052365551
-0.052457454
-0.05249949
-0.051996134
-0.052221739
-0.052369844
-0.052459093
-0.052499523
-0.051976626
-0.052206868
-0.052356414
-0.052447053
-0.052489059
-0.051928876
-0.052173031
-0.052329708
-0.052426025
-0.052471541
)
;
    }
    procBoundary17to16
    {
        type            processor;
        value           nonuniform List<scalar> 
25
(
-0.053462824
-0.05321629
-0.053054979
-0.052954333
-0.052905952
-0.053443991
-0.053206212
-0.053048849
-0.052952234
-0.052908701
-0.053439938
-0.053204816
-0.05304932
-0.052954972
-0.052912637
-0.053452647
-0.053214543
-0.053058194
-0.052962303
-0.052917493
-0.053482678
-0.053235863
-0.053074298
-0.052971517
-0.052920672
)
;
    }
    procBoundary17to26
    {
        type            processor;
        value           nonuniform List<scalar> 
25
(
-0.053338175
-0.053030447
-0.052661965
-0.052303284
-0.052020933
-0.053133852
-0.052927866
-0.05268244
-0.052439877
-0.05224328
-0.053002424
-0.052861829
-0.052693802
-0.052524379
-0.052383147
-0.052917743
-0.05281886
-0.052698398
-0.052574636
-0.052469111
-0.052874488
-0.052797252
-0.052700045
-0.052598684
-0.052510494
)
;
    }
}


// ************************************************************************* //
