/*--------------------------------*- C++ -*----------------------------------*\
| =========                 |                                                 |
| \\      /  F ield         | OpenFOAM: The Open Source CFD Toolbox           |
|  \\    /   O peration     | Version:  3.0.1                                 |
|   \\  /    A nd           | Web:      www.OpenFOAM.org                      |
|    \\/     M anipulation  |                                                 |
\*---------------------------------------------------------------------------*/
FoamFile
{
    version     2.0;
    format      ascii;
    class       surfaceScalarField;
    location    "0.1";
    object      phi;
}
// * * * * * * * * * * * * * * * * * * * * * * * * * * * * * * * * * * * * * //

dimensions      [0 3 -1 0 0 0 0];

internalField   nonuniform List<scalar> 
300
(
-0.00051642194
-0.00040972046
-4.1292833e-05
-0.00064836021
-0.00024299121
-2.0994683e-05
-0.00066203928
-2.6992128e-05
-1.0338264e-06
-0.0005532614
0.00019071919
1.8575438e-05
0.00036418368
4.0600931e-05
-0.00034969132
-0.00026854902
-2.157005e-05
-0.00043237786
-0.0001508653
-8.6094021e-06
-0.00044434939
-8.5454202e-06
3.8509061e-06
-0.00037981032
0.00013149074
1.7388537e-05
0.0002433441
3.5602851e-05
-0.00023200474
-0.00016762915
-1.0258436e-05
-0.00029006274
-8.6442966e-05
-3.3231949e-06
-0.00030432082
4.7892222e-06
3.9244633e-06
-0.00026796246
9.0451813e-05
1.4277407e-05
0.00015920285
3.09553e-05
-0.00015081665
-8.1943847e-05
-7.4911023e-07
-0.00019883147
-3.7556158e-05
-2.4490485e-06
-0.00021866055
6.7123111e-06
-1.4291106e-06
-0.0001992134
4.5856312e-05
5.7944583e-06
7.7864479e-05
1.9700841e-05
-0.0001063963
8.0335598e-06
-0.00015451919
-3.1593612e-06
-0.00017946755
-7.7419054e-06
-0.00016716009
-2.9688789e-06
8.7457966e-06
-0.0004961229
-0.00038999484
-1.9753912e-05
-0.00062840145
-0.00023060258
-2.4164473e-05
-0.00064243314
-2.2105022e-05
-2.5032182e-05
-0.00053123842
0.00018953273
-1.6811226e-05
0.00035918401
-6.3208426e-07
-0.00033672983
-0.00025723705
-1.0334769e-05
-0.00041991812
-0.00014557869
-1.1498519e-05
-0.00043081299
-8.4717888e-06
-1.1586237e-05
-0.00036159708
0.0001283792
-6.3301867e-06
0.00023869562
3.3689773e-06
-0.00022506902
-0.00015812005
-3.9596945e-06
-0.00028281523
-8.5569171e-05
-6.095247e-06
-0.00029396838
-5.6484792e-07
-6.7501162e-06
-0.00025128505
8.1968299e-05
-3.585272e-06
0.00014794785
2.5887498e-06
-0.00015251633
-7.316043e-05
1.5657311e-06
-0.00019781155
-3.8267396e-05
-4.441684e-06
-0.00021143717
3.9811475e-07
-7.3644743e-06
-0.00018530724
3.7093088e-05
-6.2901069e-06
6.6912792e-05
-2.2040953e-06
-0.0001175891
5.2190424e-06
-0.00015910173
-4.2669196e-06
-0.00017469459
-8.8864493e-06
-0.0001554455
-8.7046417e-06
-5.5399245e-06
-0.00050053158
-0.00038057021
5.3792561e-06
-0.00062926861
-0.00021792987
-2.0418726e-05
-0.00063421247
-8.6525208e-06
-4.0870069e-05
-0.00051506032
0.00020001843
-5.0795722e-05
0.00036318694
-5.2508255e-05
-0.0003378928
-0.00025085994
5.6504344e-06
-0.00042000562
-0.00014017289
-9.3217405e-06
-0.00042555707
-3.633179e-06
-2.1908134e-05
-0.00035189828
0.00013112593
-3.0553825e-05
0.00023791606
-3.673134e-05
-0.00022720423
-0.00015259401
7.8509934e-06
-0.00028347
-8.3914878e-05
-3.8248976e-06
-0.00029080358
-1.1785095e-06
-1.3762103e-05
-0.00024511118
7.9263936e-05
-2.2173604e-05
0.00014315513
-2.9071294e-05
-0.00015852359
-6.9506106e-05
7.243546e-06
-0.00020073429
-3.8093523e-05
-3.4317278e-06
-0.00021036282
-1.1256974e-06
-1.2237588e-05
-0.00018122129
3.4676816e-05
-1.9233162e-05
6.3576038e-05
-2.3911473e-05
-0.00012707499
4.3124188e-06
-0.00016372123
-4.8511728e-06
-0.00017451279
-1.203912e-05
-0.00015228082
-1.7003313e-05
-1.9577156e-05
-0.00052632763
-0.00038029481
3.1146071e-05
-0.00064971834
-0.00020682589
-7.7641588e-06
-0.00064413759
1.0318026e-05
-4.6302365e-05
-0.00051677399
0.00022026856
-7.7850877e-05
0.00037896979
-9.5229331e-05
-0.00035286432
-0.00024865743
2.225806e-05
-0.00043259145
-0.00013467289
-2.2975289e-06
-0.00043420253
4.516609e-06
-2.6794253e-05
-0.00035807623
0.00013950962
-5.0682375e-05
0.00024557848
-6.9974033e-05
-0.00023887986
-0.00015320066
1.7482325e-05
-0.00029340698
-8.3520499e-05
-2.211609e-08
-0.00029921497
3.4738425e-07
-1.7500912e-05
-0.00025200904
8.2205591e-05
-3.5629208e-05
0.0001483157
-5.169434e-05
-0.00016919877
-7.2435566e-05
8.3044787e-06
-0.00020954007
-3.9513676e-05
-2.3314495e-06
-0.00021735835
-9.2989768e-07
-1.4175631e-05
-0.00018589966
3.6902453e-05
-2.5856515e-05
6.7905118e-05
-3.5237343e-05
-0.00013623854
1.3434799e-07
-0.00017090914
-4.0530655e-06
-0.00017947696
-1.1954228e-05
-0.00015485469
-1.930399e-05
-2.4078169e-05
-0.00056523518
-0.00038918158
-0.00068825343
-0.00020135417
-0.00067568454
2.9834228e-05
-0.00053415389
0.00024744631
0.00040423294
-0.00037741877
-0.00025343215
-0.00045708683
-0.00013239488
-0.00045808995
1.3813667e-05
-0.00037736863
0.00015456669
0.00026386134
-0.00025638398
-0.00016237792
-0.00031088533
-8.5828675e-05
-0.00031734302
3.6741341e-06
-0.00026807445
9.1979714e-05
0.00016477371
-0.00017983461
-8.0604475e-05
-0.00022138409
-4.1235782e-05
-0.00022903914
1.2886107e-06
-0.0001952806
4.3449684e-05
7.9057135e-05
-0.00014042594
-0.00017881025
-0.00018682669
-0.00015962891
)
;

boundaryField
{
    movingWall
    {
        type            calculated;
        value           uniform 0;
    }
    CPLReceiveMD
    {
        type            calculated;
        value           nonuniform 0();
    }
    streamwiseIn
    {
        type            cyclic;
        value           nonuniform 0();
    }
    streamwiseOut
    {
        type            cyclic;
        value           nonuniform 0();
    }
    front
    {
        type            cyclic;
        value           nonuniform 0();
    }
    back
    {
        type            cyclic;
        value           nonuniform 0();
    }
    procBoundary17to8
    {
        type            processor;
        value           nonuniform List<scalar> 
25
(
4.3217118e-05
2.1562186e-05
-1.4046867e-05
-5.3260854e-05
-8.675896e-05
1.9167357e-05
5.9087486e-06
-1.5857662e-05
-3.9638365e-05
-6.0607709e-05
1.4736589e-05
1.1214693e-06
-1.5476334e-05
-3.3183227e-05
-4.9296506e-05
1.7359009e-05
1.6165655e-06
-1.3727468e-05
-2.9657887e-05
-4.4753727e-05
2.1069668e-05
4.5576943e-06
-1.1750816e-05
-2.7863814e-05
-4.3187385e-05
)
;
    }
    procBoundary17to14
    {
        type            processor;
        value           nonuniform List<scalar> 
25
(
0.0006373839
0.00039965318
6.2730586e-05
-0.00029183357
-0.00057570908
0.00060694732
0.00037068596
5.1010699e-05
-0.00027833751
-0.00054269771
0.00058890373
0.00034631971
3.0161028e-05
-0.00028847644
-0.00053968585
0.00058803288
0.00032896563
2.8321965e-07
-0.00032292277
-0.00056818287
0.00060943861
0.00032112892
-3.373676e-05
-0.00037394984
-0.00063116991
)
;
    }
    procBoundary17to15throughstreamwiseOut
    {
        type            processorCyclic;
        value           nonuniform List<scalar> 
25
(
-0.00035014891
-0.00024433379
-0.0001806539
-0.00014673216
-0.00013108749
-0.00032967218
-0.00023322404
-0.00017151818
-0.00013593929
-0.00011888799
-0.00031074101
-0.00022338025
-0.00016553349
-0.00013046201
-0.00011328225
-0.00029720399
-0.00021635037
-0.00016328509
-0.00013059641
-0.00011459711
-0.00029736744
-0.00021396318
-0.00016492621
-0.00013735403
-0.00012549343
)
;
    }
    procBoundary17to16
    {
        type            processor;
        value           nonuniform List<scalar> 
25
(
0.00027819724
0.00019549369
0.00014187763
0.00010850634
9.3818126e-05
0.00028184735
0.00019692575
0.00013988952
0.00010506217
9.127264e-05
0.0002934876
0.00020446622
0.00014478652
0.00010896399
9.3911358e-05
0.00031348541
0.0002182385
0.00015465693
0.0001163599
9.9292651e-05
0.00034232877
0.00023856192
0.00016933609
0.00012645735
0.00010550572
)
;
    }
    procBoundary17to26
    {
        type            processor;
        value           nonuniform List<scalar> 
25
(
5.3783325e-05
4.4338946e-06
-4.3243931e-05
-8.3899872e-05
-0.00011360831
3.4859136e-05
9.1020718e-07
-3.213935e-05
-5.8464737e-05
-7.3702148e-05
2.5808891e-05
1.4202958e-06
-2.3250005e-05
-4.4251173e-05
-5.8218958e-05
1.9072895e-05
1.4369735e-06
-1.7745185e-05
-3.5861098e-05
-5.1313788e-05
1.330169e-05
-4.7517472e-07
-1.5739901e-05
-3.1281453e-05
-4.7724293e-05
)
;
    }
}


// ************************************************************************* //
