/*--------------------------------*- C++ -*----------------------------------*\
| =========                 |                                                 |
| \\      /  F ield         | OpenFOAM: The Open Source CFD Toolbox           |
|  \\    /   O peration     | Version:  3.0.1                                 |
|   \\  /    A nd           | Web:      www.OpenFOAM.org                      |
|    \\/     M anipulation  |                                                 |
\*---------------------------------------------------------------------------*/
FoamFile
{
    version     2.0;
    format      ascii;
    class       volVectorField;
    location    "0.1";
    object      U;
}
// * * * * * * * * * * * * * * * * * * * * * * * * * * * * * * * * * * * * * //

dimensions      [0 1 -1 0 0 0 0];

internalField   nonuniform List<vector> 
125
(
(-9.9325308e-07 -1.3087918e-06 -1.0563594e-07)
(-1.4559714e-06 -8.0323275e-07 -5.3192565e-08)
(-1.6380193e-06 -1.1212226e-07 1.6271551e-08)
(-1.5191458e-06 6.0317494e-07 8.980184e-08)
(-1.1292705e-06 1.1748191e-06 1.5920583e-07)
(-6.8147159e-07 -8.4778409e-07 -5.0920573e-08)
(-9.7758264e-07 -4.9227374e-07 -1.8145172e-08)
(-1.0959154e-06 -4.4395073e-08 2.46389e-08)
(-1.0302075e-06 4.0276423e-07 7.1286904e-08)
(-7.8018473e-07 7.5939355e-07 1.2026609e-07)
(-4.6734913e-07 -5.4520534e-07 -3.1243365e-08)
(-6.5258238e-07 -2.9661665e-07 -5.5548065e-09)
(-7.4298136e-07 -4.6819239e-09 2.4252327e-08)
(-7.1535719e-07 2.7743321e-07 5.9327149e-08)
(-5.6077277e-07 5.031819e-07 1.0031593e-07)
(-3.2415221e-07 -3.1197369e-07 -2.2634994e-08)
(-4.3705922e-07 -1.5499782e-07 -5.0816009e-09)
(-5.2186554e-07 1.4383946e-08 1.5373492e-08)
(-5.2234364e-07 1.7039578e-07 4.4315982e-08)
(-4.3243309e-07 2.9634741e-07 8.0568674e-08)
(-2.5026741e-07 -1.0241611e-07 -1.6295088e-08)
(-3.2614392e-07 -4.6938234e-08 -9.6461647e-09)
(-4.1748355e-07 8.3902336e-09 5.0113461e-09)
(-4.3328504e-07 5.7313696e-08 3.1118879e-08)
(-3.7281004e-07 9.7318556e-08 6.4916657e-08)
(-9.7244412e-07 -1.2461073e-06 -7.6301476e-08)
(-1.4056503e-06 -7.5155451e-07 -5.644262e-08)
(-1.5885608e-06 -9.137314e-08 -3.2577496e-08)
(-1.4671071e-06 5.8482217e-07 2.2082572e-09)
(-1.0761445e-06 1.1273142e-06 4.9962451e-08)
(-6.6706047e-07 -8.0899769e-07 -3.9877641e-08)
(-9.458066e-07 -4.7018967e-07 -2.5131079e-08)
(-1.0634194e-06 -3.8200947e-08 -9.6655824e-09)
(-9.9051983e-07 3.9738998e-07 1.3825597e-08)
(-7.4353073e-07 7.4733644e-07 4.8716309e-08)
(-4.5619448e-07 -5.191821e-07 -1.7771067e-08)
(-6.3485357e-07 -2.8891915e-07 -1.1771052e-08)
(-7.2098113e-07 -1.1284515e-08 -3.5300687e-09)
(-6.8156971e-07 2.6293889e-07 1.3366739e-08)
(-5.2850631e-07 4.8330364e-07 4.1931032e-08)
(-3.2197162e-07 -2.8910752e-07 1.0215001e-09)
(-4.3790902e-07 -1.5479544e-07 -8.6124186e-09)
(-5.1156132e-07 -2.0271199e-10 -1.0990922e-08)
(-4.9593167e-07 1.4883612e-07 -6.1868016e-10)
(-4.0155931e-07 2.6858786e-07 2.1871507e-08)
(-2.6107654e-07 -9.1438395e-08 1.6566076e-08)
(-3.4586314e-07 -4.782735e-08 -9.2823874e-09)
(-4.1724548e-07 4.9835536e-10 -2.0784925e-08)
(-4.126756e-07 4.6361008e-08 -1.4591448e-08)
(-3.4291742e-07 8.3630716e-08 4.0076491e-09)
(-9.9250922e-07 -1.211786e-06 -1.7973112e-08)
(-1.4122474e-06 -7.0527302e-07 -5.5733429e-08)
(-1.5793685e-06 -4.8511048e-08 -8.23814e-08)
(-1.4366059e-06 6.105933e-07 -8.451091e-08)
(-1.0322542e-06 1.1285509e-06 -6.6425794e-08)
(-6.779412e-07 -7.8925368e-07 -5.85707e-09)
(-9.4737058e-07 -4.4760217e-07 -2.6026845e-08)
(-1.0569587e-06 -1.5347645e-08 -4.186922e-08)
(-9.7182557e-07 4.1392271e-07 -4.6105783e-08)
(-7.191011e-07 7.5136213e-07 -4.170307e-08)
(-4.6498523e-07 -5.043062e-07 4.8635522e-09)
(-6.3834138e-07 -2.8009798e-07 -1.2400652e-08)
(-7.1784357e-07 -6.0072639e-09 -2.5640614e-08)
(-6.6989609e-07 2.6298893e-07 -3.2198755e-08)
(-5.1330763e-07 4.763371e-07 -3.3103129e-08)
(-3.3435811e-07 -2.7763249e-07 1.10114e-08)
(-4.4907165e-07 -1.5251149e-07 -9.8418981e-09)
(-5.1387181e-07 -2.8760501e-09 -2.4502646e-08)
(-4.8948121e-07 1.4243405e-07 -3.1904086e-08)
(-3.8960511e-07 2.5842516e-07 -3.2644394e-08)
(-2.7623234e-07 -8.6871227e-08 1.1914265e-08)
(-3.6349492e-07 -4.761025e-08 -1.1397628e-08)
(-4.2279261e-07 -1.4063856e-09 -2.6156936e-08)
(-4.0849246e-07 4.334089e-08 -3.2134892e-08)
(-3.3195435e-07 7.9460232e-08 -3.1396286e-08)
(-1.0497565e-06 -1.210359e-06 4.5648919e-08)
(-1.4700586e-06 -6.6971469e-07 -3.523598e-08)
(-1.6173383e-06 1.2529637e-08 -1.089713e-07)
(-1.4511515e-06 6.7894418e-07 -1.6081155e-07)
(-1.0174694e-06 1.1838862e-06 -1.8467255e-07)
(-7.1387295e-07 -7.8616103e-07 3.4882373e-08)
(-9.8181875e-07 -4.2685689e-07 -1.4527108e-08)
(-1.0834983e-06 1.8539838e-08 -6.0880143e-08)
(-9.9035368e-07 4.4970213e-07 -1.0154637e-07)
(-7.1803388e-07 7.8065911e-07 -1.3338175e-07)
(-4.9191854e-07 -5.0231363e-07 3.166542e-08)
(-6.6535773e-07 -2.7273421e-07 -4.8100595e-09)
(-7.4077923e-07 6.0820594e-09 -3.9079811e-08)
(-6.8903222e-07 2.7714058e-07 -7.2254169e-08)
(-5.1911853e-07 4.9236232e-07 -1.0095727e-07)
(-3.5694726e-07 -2.8205404e-07 1.9434551e-08)
(-4.7342306e-07 -1.5379557e-07 -7.2045297e-09)
(-5.3362351e-07 -7.2590251e-10 -3.3017014e-08)
(-5.0407342e-07 1.4889168e-07 -5.6362438e-08)
(-3.9562072e-07 2.7028671e-07 -7.3936183e-08)
(-2.9441351e-07 -9.0532751e-08 5.5582576e-09)
(-3.8393434e-07 -4.9385481e-08 -1.1130557e-08)
(-4.3798275e-07 -1.1619803e-09 -2.9991933e-08)
(-4.1791495e-07 4.6122305e-08 -4.5384316e-08)
(-3.3681511e-07 8.4870722e-08 -5.4569259e-08)
(-1.134451e-06 -1.2482184e-06 1.0615732e-07)
(-1.5668676e-06 -6.5308719e-07 -4.1705658e-09)
(-1.704944e-06 7.9428926e-08 -1.1194272e-07)
(-1.5123071e-06 7.7667259e-07 -2.0219795e-07)
(-1.0393923e-06 1.294173e-06 -2.6105366e-07)
(-7.699726e-07 -8.0323718e-07 7.1394648e-08)
(-1.0431331e-06 -4.1717625e-07 -1.7375916e-09)
(-1.143978e-06 5.4543844e-08 -7.3671225e-08)
(-1.0443272e-06 5.024801e-07 -1.3643782e-07)
(-7.391626e-07 8.3507741e-07 -1.7959813e-07)
(-5.3214855e-07 -5.1975402e-07 5.4113202e-08)
(-7.0908661e-07 -2.7277541e-07 1.7461831e-09)
(-7.8528768e-07 2.1855865e-08 -5.0940517e-08)
(-7.3177355e-07 3.0817286e-07 -9.9852188e-08)
(-5.4125053e-07 5.3578267e-07 -1.3739287e-07)
(-3.8286424e-07 -3.0373851e-07 3.4221365e-08)
(-5.0152321e-07 -1.5883526e-07 -1.1187943e-09)
(-5.6302971e-07 6.2036918e-09 -3.9901881e-08)
(-5.3040037e-07 1.6929194e-07 -7.7147808e-08)
(-4.1579342e-07 3.047991e-07 -1.0818949e-07)
(-3.0741425e-07 -1.0074268e-07 1.6794896e-08)
(-3.9904511e-07 -5.1538082e-08 -5.6606156e-09)
(-4.5704637e-07 1.6104525e-09 -3.4618063e-08)
(-4.3306979e-07 5.4304947e-08 -6.3232185e-08)
(-3.5640308e-07 9.8808709e-08 -8.9753362e-08)
)
;

boundaryField
{
    movingWall
    {
        type            fixedValue;
        value           uniform (0 0 0);
    }
    CPLReceiveMD
    {
        type            fixedValue;
        value           nonuniform 0();
    }
    streamwiseIn
    {
        type            cyclic;
    }
    streamwiseOut
    {
        type            cyclic;
    }
    front
    {
        type            cyclic;
    }
    back
    {
        type            cyclic;
    }
    procBoundary17to8
    {
        type            processor;
        value           nonuniform List<vector> 
25
(
(-1.0565948e-06 -1.4019707e-06 -1.186427e-07)
(-1.5275578e-06 -8.5049435e-07 -4.52489e-08)
(-1.7315552e-06 -1.0632057e-07 6.3918323e-08)
(-1.6100414e-06 6.5737007e-07 1.7140008e-07)
(-1.1837783e-06 1.2620028e-06 2.4623887e-07)
(-7.284611e-07 -8.8339027e-07 -6.4069803e-08)
(-1.0213661e-06 -5.1782743e-07 -1.3518238e-08)
(-1.1528514e-06 -4.6181723e-08 5.6825948e-08)
(-1.086147e-06 4.2786467e-07 1.2438041e-07)
(-8.1952331e-07 8.0622634e-07 1.727968e-07)
(-4.958802e-07 -5.4746768e-07 -4.7411114e-08)
(-6.9034926e-07 -3.0198272e-07 -1.0567812e-09)
(-7.8586309e-07 -2.0191069e-09 5.3929345e-08)
(-7.5763331e-07 2.8990981e-07 1.0550804e-07)
(-5.9009303e-07 5.2300106e-07 1.4402917e-07)
(-3.3695136e-07 -3.0405147e-07 -4.83512e-08)
(-4.759175e-07 -1.5070144e-07 3.7166221e-09)
(-5.6095891e-07 1.9037146e-08 5.5728369e-08)
(-5.6112686e-07 1.7703662e-07 1.0118482e-07)
(-4.5338061e-07 3.0397083e-07 1.3554535e-07)
(-2.5110477e-07 -9.7772696e-08 -5.2196315e-08)
(-3.6716958e-07 -4.3261516e-08 6.032911e-09)
(-4.5801053e-07 1.0856718e-08 5.7729165e-08)
(-4.7258091e-07 5.9547139e-08 9.9303631e-08)
(-3.8768086e-07 9.9262725e-08 1.2965493e-07)
)
;
    }
    procBoundary17to14
    {
        type            processor;
        value           nonuniform List<vector> 
25
(
(-1.4326242e-06 -2.0491559e-06 -2.0678398e-07)
(-2.1742521e-06 -1.3075833e-06 -1.1708501e-07)
(-2.5023231e-06 -2.2635809e-07 9.6914698e-09)
(-2.3171488e-06 9.2032388e-07 1.438348e-07)
(-1.6719411e-06 1.826102e-06 2.549547e-07)
(-1.3953041e-06 -1.9198728e-06 -1.3688337e-07)
(-2.1005408e-06 -1.1961698e-06 -1.230908e-07)
(-2.399796e-06 -1.8624105e-07 -7.3276799e-08)
(-2.2092072e-06 8.6485806e-07 6.4072413e-09)
(-1.5904809e-06 1.6937869e-06 9.498444e-08)
(-1.425493e-06 -1.8416916e-06 -4.1605348e-08)
(-2.1106456e-06 -1.1050237e-06 -1.0786666e-07)
(-2.372825e-06 -1.134001e-07 -1.45772e-07)
(-2.1488876e-06 8.9771499e-07 -1.402278e-07)
(-1.5290918e-06 1.6898058e-06 -9.8275102e-08)
(-1.525662e-06 -1.8434796e-06 7.1314776e-08)
(-2.2047074e-06 -1.0460481e-06 -6.6712944e-08)
(-2.4321572e-06 -6.2121608e-09 -1.8882012e-07)
(-2.1617103e-06 1.0273804e-06 -2.6762566e-07)
(-1.5048987e-06 1.8076775e-06 -2.9900379e-07)
(-1.6765142e-06 -1.9333245e-06 1.8013032e-07)
(-2.3707805e-06 -1.0237288e-06 -7.0975386e-09)
(-2.5737378e-06 1.2666347e-07 -2.0551391e-07)
(-2.2590712e-06 1.2320506e-06 -3.6342699e-07)
(-1.5163924e-06 2.0348142e-06 -4.3878017e-07)
)
;
    }
    procBoundary17to15throughstreamwiseOut
    {
        type            processorCyclic;
        value           nonuniform List<vector> 
25
(
(-5.4301967e-07 1.4949313e-06 1.974356e-07)
(-3.8641686e-07 9.71262e-07 1.4727948e-07)
(-2.9540686e-07 6.2518485e-07 1.2091387e-07)
(-2.5678408e-07 3.582647e-07 9.6137287e-08)
(-2.4460118e-07 1.1682877e-07 7.5882319e-08)
(-5.0656998e-07 1.4317724e-06 9.9224617e-08)
(-3.6703351e-07 9.4502816e-07 7.4909224e-08)
(-2.8437748e-07 6.0491031e-07 6.0831876e-08)
(-2.4172654e-07 3.3433862e-07 4.2209294e-08)
(-2.2119172e-07 1.0490256e-07 2.6264239e-08)
(-4.7223293e-07 1.420584e-06 -2.5835817e-08)
(-3.4929823e-07 9.3286926e-07 -2.0608938e-08)
(-2.730402e-07 5.9248492e-07 -2.2810974e-08)
(-2.2904512e-07 3.2370376e-07 -2.5965497e-08)
(-2.0672099e-07 1.0089426e-07 -2.6032581e-08)
(-4.3749482e-07 1.465809e-06 -1.6794964e-07)
(-3.2891232e-07 9.48053e-07 -1.2160787e-07)
(-2.5992081e-07 5.9955375e-07 -1.0019707e-07)
(-2.2024224e-07 3.311105e-07 -8.2550742e-08)
(-2.0212993e-07 1.04829e-07 -6.9833044e-08)
(-4.1548089e-07 1.5539024e-06 -2.7926127e-07)
(-3.1116354e-07 1.0006218e-06 -1.976589e-07)
(-2.5027189e-07 6.3154204e-07 -1.4538987e-07)
(-2.2330915e-07 3.5405016e-07 -1.0776643e-07)
(-2.1710217e-07 1.1359136e-07 -8.4121217e-08)
)
;
    }
    procBoundary17to16
    {
        type            processor;
        value           nonuniform List<vector> 
25
(
(-3.6733801e-07 -1.5543853e-06 -1.3734324e-07)
(-2.812069e-07 -1.0181777e-06 -7.9545808e-08)
(-2.1916659e-07 -6.5393602e-07 -4.5240523e-08)
(-1.7891837e-07 -3.7201795e-07 -2.0061342e-08)
(-1.5885057e-07 -1.2074217e-07 3.2560506e-10)
(-3.7834863e-07 -1.4797982e-06 -5.7186471e-08)
(-2.8557078e-07 -9.8643931e-07 -2.8661463e-08)
(-2.2079811e-07 -6.34008e-07 -1.4134956e-08)
(-1.7870578e-07 -3.4984927e-07 1.5934855e-09)
(-1.5705012e-07 -1.0864217e-07 1.6682545e-08)
(-4.0497881e-07 -1.4528248e-06 2.1578991e-08)
(-3.0191835e-07 -9.7512617e-07 2.0785632e-08)
(-2.3164306e-07 -6.2368108e-07 2.3323406e-08)
(-1.8760859e-07 -3.4119648e-07 2.5133744e-08)
(-1.6507877e-07 -1.0565271e-07 2.1939339e-08)
(-4.4756661e-07 -1.4815038e-06 1.0670576e-07)
(-3.2686503e-07 -9.8469489e-07 7.7504285e-08)
(-2.4665376e-07 -6.2965989e-07 6.2353265e-08)
(-2.0135516e-07 -3.51228e-07 4.1301601e-08)
(-1.805135e-07 -1.1183031e-07 2.0051349e-08)
(-5.0239305e-07 -1.5596288e-06 1.7180922e-07)
(-3.5804886e-07 -1.0194787e-06 1.0913641e-07)
(-2.6675463e-07 -6.5988376e-07 7.9972426e-08)
(-2.2188468e-07 -3.8349337e-07 5.7691079e-08)
(-2.0268094e-07 -1.2689267e-07 3.9934163e-08)
)
;
    }
    procBoundary17to26
    {
        type            processor;
        value           nonuniform List<vector> 
25
(
(-1.2257363e-06 -1.3190947e-06 1.4124003e-07)
(-1.6881586e-06 -6.6435474e-07 2.2946308e-08)
(-1.8153656e-06 1.4437233e-07 -1.092892e-07)
(-1.6002624e-06 9.0593336e-07 -2.2289818e-07)
(-1.0945327e-06 1.4430683e-06 -2.9963747e-07)
(-8.2474695e-07 -8.3820514e-07 8.2672621e-08)
(-1.1268846e-06 -4.2094014e-07 4.9052091e-09)
(-1.2181985e-06 7.9542038e-08 -8.1138832e-08)
(-1.0962806e-06 5.520479e-07 -1.5305465e-07)
(-7.7925496e-07 9.043199e-07 -1.9779834e-07)
(-5.7014478e-07 -5.3948691e-07 6.3274446e-08)
(-7.7041145e-07 -2.7211541e-07 4.7480467e-09)
(-8.4237761e-07 3.9851403e-08 -5.8752044e-08)
(-7.7548457e-07 3.3643059e-07 -1.1309441e-07)
(-5.6465621e-07 5.6377096e-07 -1.4970856e-07)
(-4.1575713e-07 -3.1936828e-07 6.0822988e-08)
(-5.4754631e-07 -1.612043e-07 1.1100925e-08)
(-6.0965253e-07 1.5587097e-08 -4.1991966e-08)
(-5.7236103e-07 1.85495e-07 -8.9744216e-08)
(-4.2623934e-07 3.1790312e-07 -1.2683807e-07)
(-3.4000829e-07 -1.0795072e-07 6.023826e-08)
(-4.353473e-07 -5.3927623e-08 1.3570099e-08)
(-4.9555432e-07 4.1118378e-09 -3.4397199e-08)
(-4.7305025e-07 6.0018637e-08 -7.8952684e-08)
(-3.5770414e-07 1.0327983e-07 -1.1780763e-07)
)
;
    }
}


// ************************************************************************* //
