/*--------------------------------*- C++ -*----------------------------------*\
| =========                 |                                                 |
| \\      /  F ield         | OpenFOAM: The Open Source CFD Toolbox           |
|  \\    /   O peration     | Version:  3.0.1                                 |
|   \\  /    A nd           | Web:      www.OpenFOAM.org                      |
|    \\/     M anipulation  |                                                 |
\*---------------------------------------------------------------------------*/
FoamFile
{
    version     2.0;
    format      ascii;
    class       volScalarField;
    location    "0.1";
    object      p;
}
// * * * * * * * * * * * * * * * * * * * * * * * * * * * * * * * * * * * * * //

dimensions      [0 2 -2 0 0 0 0];

internalField   nonuniform List<scalar> 
125
(
-0.047071961
-0.047301006
-0.04825066
-0.049643557
-0.051320778
-0.048965108
-0.048983654
-0.049573143
-0.050546238
-0.051750777
-0.050207687
-0.050166829
-0.050534241
-0.051200042
-0.052054819
-0.051035414
-0.050984477
-0.051215821
-0.051669317
-0.052269269
-0.051592923
-0.051541894
-0.05169279
-0.05200462
-0.052418906
-0.04771424
-0.047870391
-0.048679753
-0.049885511
-0.051352089
-0.049289223
-0.049289558
-0.049817124
-0.050699169
-0.05179506
-0.050379052
-0.050332942
-0.050673131
-0.051295705
-0.052094091
-0.051127827
-0.051076165
-0.051297052
-0.051730699
-0.052300813
-0.051641589
-0.051595824
-0.051741961
-0.052042763
-0.052442238
-0.047946881
-0.048153676
-0.049012615
-0.050204198
-0.051556981
-0.049402602
-0.049440484
-0.049989458
-0.050858055
-0.051902923
-0.050430934
-0.050410257
-0.050763046
-0.05137951
-0.052154309
-0.051150934
-0.051115324
-0.051344808
-0.051776965
-0.05233565
-0.051652683
-0.051617359
-0.051769063
-0.052069729
-0.052466477
-0.04770953
-0.048099188
-0.049158522
-0.050484316
-0.051849387
-0.049258856
-0.049396039
-0.05003864
-0.050970448
-0.052035524
-0.050343921
-0.050374785
-0.05077508
-0.051426651
-0.0522206
-0.051098963
-0.051089735
-0.05134534
-0.051798232
-0.052371146
-0.051619712
-0.051599453
-0.05176644
-0.052079831
-0.052487154
-0.047038857
-0.047718541
-0.049058074
-0.050587218
-0.052062133
-0.048886143
-0.049161448
-0.049942734
-0.050986283
-0.052130869
-0.0501403
-0.050232574
-0.050702817
-0.051419498
-0.052267926
-0.050986351
-0.051005199
-0.051298034
-0.051788524
-0.05239541
-0.051550623
-0.051546441
-0.051735365
-0.052071469
-0.052495731
)
;

boundaryField
{
    movingWall
    {
        type            zeroGradient;
    }
    CPLReceiveMD
    {
        type            zeroGradient;
    }
    streamwiseIn
    {
        type            cyclic;
    }
    streamwiseOut
    {
        type            cyclic;
    }
    front
    {
        type            cyclic;
    }
    back
    {
        type            cyclic;
    }
    procBoundary12to3
    {
        type            processor;
        value           nonuniform List<scalar> 
25
(
-0.04623232
-0.046621388
-0.047828396
-0.049486701
-0.051376203
-0.048525962
-0.048602735
-0.049307057
-0.050411534
-0.051737
-0.049969844
-0.049950081
-0.050370355
-0.051103641
-0.05202506
-0.050900603
-0.050857765
-0.051114624
-0.051604213
-0.052242033
-0.051512532
-0.05146339
-0.051627869
-0.051960445
-0.05239837
)
;
    }
    procBoundary12to9
    {
        type            processor;
        value           nonuniform List<scalar> 
25
(
-0.044194222
-0.045022436
-0.046514817
-0.048405173
-0.050723561
-0.045472775
-0.046068114
-0.047240391
-0.048730717
-0.050647629
-0.0459318
-0.046546257
-0.047885233
-0.049418973
-0.051066091
-0.045533858
-0.046463281
-0.048254716
-0.050149924
-0.051789659
-0.044329006
-0.045855665
-0.048204573
-0.050509705
-0.052331474
)
;
    }
    procBoundary12to13
    {
        type            processor;
        value           nonuniform List<scalar> 
25
(
-0.053085431
-0.053033762
-0.052974618
-0.052919932
-0.05287294
-0.052918876
-0.05297695
-0.052960637
-0.052919819
-0.052874373
-0.05293797
-0.053010723
-0.052990988
-0.052942123
-0.052890005
-0.053149576
-0.053136046
-0.05306582
-0.052989019
-0.052918957
-0.053451185
-0.053308687
-0.053167611
-0.053052316
-0.052953529
)
;
    }
    procBoundary12to14throughstreamwiseIn
    {
        type            processorCyclic;
        value           nonuniform List<scalar> 
25
(
-0.048001574
-0.049694104
-0.050733609
-0.051400286
-0.051843456
-0.048614533
-0.049974541
-0.050872716
-0.051473581
-0.051880299
-0.048787131
-0.050029282
-0.050886019
-0.051474888
-0.051881504
-0.048404866
-0.049806846
-0.05075631
-0.051401477
-0.051840988
-0.04750572
-0.049338203
-0.050505295
-0.051262966
-0.051761838
)
;
    }
    procBoundary12to15
    {
        type            processor;
        value           nonuniform List<scalar> 
25
(
-0.051956397
-0.051914211
-0.052015569
-0.052231922
-0.052519193
-0.051986972
-0.051949135
-0.052046465
-0.052254582
-0.052532093
-0.051996134
-0.051962568
-0.052062329
-0.052270026
-0.052545362
-0.051976626
-0.051950189
-0.052058175
-0.052274076
-0.052557531
-0.051928876
-0.051911328
-0.052031423
-0.052262515
-0.052563163
)
;
    }
    procBoundary12to21
    {
        type            processor;
        value           nonuniform List<scalar> 
25
(
-0.046084436
-0.047108238
-0.048703101
-0.050398874
-0.052039543
-0.048362585
-0.048793342
-0.049714979
-0.050873858
-0.052134779
-0.049840786
-0.050009968
-0.050559812
-0.051350493
-0.052274933
-0.050810799
-0.050867485
-0.051205169
-0.051743839
-0.052403835
-0.05145108
-0.051458994
-0.051669007
-0.052032995
-0.052491944
)
;
    }
}


// ************************************************************************* //
