/*--------------------------------*- C++ -*----------------------------------*\
| =========                 |                                                 |
| \\      /  F ield         | OpenFOAM: The Open Source CFD Toolbox           |
|  \\    /   O peration     | Version:  3.0.1                                 |
|   \\  /    A nd           | Web:      www.OpenFOAM.org                      |
|    \\/     M anipulation  |                                                 |
\*---------------------------------------------------------------------------*/
FoamFile
{
    version     2.0;
    format      ascii;
    class       surfaceScalarField;
    location    "0.1";
    object      phi;
}
// * * * * * * * * * * * * * * * * * * * * * * * * * * * * * * * * * * * * * //

dimensions      [0 3 -1 0 0 0 0];

internalField   nonuniform List<scalar> 
300
(
0.00045807436
0.0037855555
0.0012843307
0.0018979685
0.0033642186
0.0011386216
0.0027830788
0.0026438727
0.00085804474
0.0033506281
0.001804644
0.00048373412
0.00085984857
6.2444385e-05
3.7134372e-05
0.0024837594
0.00064806259
0.0011777633
0.0023647817
0.00061167964
0.0019438884
0.0019207647
0.00048782344
0.0024059479
0.0013066407
0.00030568165
0.00060783295
8.836188e-05
-8.1666132e-05
0.0016539554
0.00034257152
0.00073388733
0.0016337628
0.00033209342
0.0013298349
0.0013618231
0.00027764484
0.0017071735
0.00093764449
0.00019116875
0.00042862813
7.8379237e-05
-0.00010180364
0.0011137278
0.00018469712
0.00046202377
0.0011135604
0.00018326005
0.00090570527
0.00095283837
0.00016234351
0.0011981668
0.00066984939
0.00012263607
0.00029902039
6.2964357e-05
-0.00010195467
9.7245156e-05
0.00030133699
0.00010776153
0.00062274214
9.8242442e-05
0.00082734527
7.6194604e-05
4.6580476e-05
0.00031234345
0.0031490965
0.00046515811
0.0016173185
0.0028371653
0.00056653534
0.0024087497
0.0022736209
0.00066566526
0.0029293628
0.0016266345
0.00063721661
0.00088584323
0.00040956908
7.4211405e-07
0.0021781695
0.00022663173
0.0010538976
0.0020851508
0.00030181176
0.0017617472
0.0017105765
0.00034462869
0.0021886567
0.0011921472
0.00031767126
0.0005978791
0.00021555957
-9.214983e-05
0.0014960499
0.0001036862
0.00067943558
0.0014849109
0.00015458809
0.0012433617
0.0012465186
0.00017978193
0.0015943996
0.0008691257
0.00016752732
0.00041323619
0.00012031779
-0.00010324443
0.0010262651
4.617211e-05
0.0004411057
0.0010380554
7.8282271e-05
0.00086599947
0.00088873765
9.5465441e-05
0.0011385022
0.00062341626
9.2465716e-05
0.00028264966
6.9591399e-05
-9.1440588e-05
2.2163122e-05
0.00029181699
4.3036361e-05
0.00060069483
5.4161259e-05
0.00079773362
5.3877261e-05
4.84112e-05
0.00041373195
0.0029105593
-0.00047475892
0.0017164326
0.0025724577
-0.00010883921
0.0023803171
0.0019525279
0.00029197049
0.0027017581
0.0013069597
0.00056026144
0.00069173528
0.00058476197
7.5905724e-05
0.0020551847
-0.00028746454
0.0010967102
0.0019379086
-8.8736582e-05
0.0017348039
0.0015456986
9.8545303e-05
0.0020865752
0.0010419572
0.00022487894
0.00050260221
0.0002651777
-4.1253874e-05
0.0014385199
-0.00017396482
0.00070462815
0.0014085882
-7.0824798e-05
0.0012311137
0.0011621815
2.4190207e-05
0.0015472044
0.00079404424
9.4346336e-05
0.00036249795
0.00013256408
-7.1135904e-05
0.0010022489
-0.00010387954
0.00045828836
0.0010027997
-5.1098265e-05
0.00086300225
0.00084742259
1.1314527e-06
0.001115634
0.00058481903
4.2561243e-05
0.00026146522
7.096841e-05
-7.0567596e-05
-6.5881428e-05
0.0003029416
-3.575643e-05
0.00060041146
-5.2091367e-06
0.00079226972
2.0210888e-05
4.1325979e-05
0.00077964329
0.0030978823
-0.0013414105
0.0021172388
0.0025925976
-0.00076121182
0.0026486418
0.0017590519
-0.00020077067
0.0027262596
0.00097139382
0.00020587083
0.00037197083
0.00042550984
0.00027461746
0.0021686958
-0.00074538368
0.0012839956
0.0019558214
-0.00046901241
0.0018611657
0.0014713084
-0.00019159825
0.0021269121
0.00091135181
3.1829371e-05
0.00036991683
0.00019077595
6.1881004e-05
0.0015086148
-0.00040714737
0.00079964589
0.001428309
-0.00028424738
0.0013012826
0.0011390984
-0.00014433713
0.0015854391
0.00074222248
-1.4172533e-05
0.00030087149
9.4710169e-05
-1.8355335e-05
0.0010402515
-0.00022511882
0.00051051934
0.0010181367
-0.00016892932
0.00090443718
0.0008410688
-9.4477307e-05
0.0011440487
0.00056245128
-1.9328015e-05
0.00023180803
4.8556838e-05
-4.0442022e-05
-0.0001380655
0.00033348939
-0.00010590966
0.00062583323
-6.2057749e-05
0.00081338795
-1.6670062e-05
1.7172895e-05
0.0013598282
0.0036940062
0.0026777087
0.0028848252
0.0030553725
0.0017681728
0.0029459281
0.00079719523
0.000137059
0.00055098924
0.0025069969
0.0015614096
0.002140584
0.0020845964
0.0015185285
0.0022858554
0.00086529381
0.00027374309
0.00018477945
0.0016906661
0.00093955528
0.0015436122
0.0014314497
0.0011889219
0.0016943222
0.00073703086
0.00025468942
3.7833514e-05
0.0011273155
0.00058497065
0.0010811499
0.00097958809
0.0008734716
0.0012119351
0.00056509094
0.00020040923
-8.2862043e-06
0.00037734074
0.0006712217
0.00084723258
)
;

boundaryField
{
    movingWall
    {
        type            calculated;
        value           nonuniform 0();
    }
    CPLReceiveMD
    {
        type            calculated;
        value           nonuniform 0();
    }
    streamwiseIn
    {
        type            cyclic;
        value           nonuniform 0();
    }
    streamwiseOut
    {
        type            cyclic;
        value           nonuniform 0();
    }
    front
    {
        type            cyclic;
        value           nonuniform 0();
    }
    back
    {
        type            cyclic;
        value           nonuniform 0();
    }
    procBoundary12to3
    {
        type            processor;
        value           nonuniform List<scalar> 
25
(
-0.0016791826
-0.0013592633
-0.00084458762
-0.00031372017
0.0001109649
-0.0008782375
-0.00076178662
-0.00053210081
-0.00026930418
-2.7381525e-05
-0.0004755617
-0.00043336709
-0.00032764099
-0.00019266715
-5.9363073e-05
-0.00026947524
-0.00025327695
-0.0002022549
-0.00013008532
-5.4360336e-05
-0.00016064192
-0.00015686652
-0.00012971421
-8.8247122e-05
-4.099714e-05
)
;
    }
    procBoundary12to9
    {
        type            processor;
        value           nonuniform List<scalar> 
25
(
-0.0057559599
-0.00455704
-0.0034715189
-0.0024768276
-0.0011945237
-0.004483296
-0.0036042724
-0.0028784386
-0.0023096736
-0.0014090287
-0.0040306645
-0.0032147963
-0.0022544542
-0.0015702657
-0.00098161224
-0.0043520537
-0.0032720956
-0.0018074611
-0.00066841804
-0.0001188553
-0.0054205172
-0.0037262891
-0.0017069967
-0.00015447304
0.00053939462
)
;
    }
    procBoundary12to13
    {
        type            processor;
        value           nonuniform List<scalar> 
25
(
0.0035251957
0.0025625596
0.0018369991
0.0012994213
0.00090671357
0.003129581
0.0023604379
0.0017305272
0.0012361414
0.00086295197
0.0027581295
0.0022122988
0.0016707988
0.0012110732
0.0008457463
0.0025965659
0.0021976998
0.0016878315
0.0012338297
0.00086226932
0.0027741161
0.0023521982
0.0017966811
0.0013118196
0.00091419917
)
;
    }
    procBoundary12to14throughstreamwiseIn
    {
        type            processorCyclic;
        value           nonuniform List<scalar> 
25
(
0.0018576901
0.0014565503
0.0010507071
0.00072888457
0.00050042647
0.001798815
0.0013691267
0.00098617558
0.00069065398
0.00047679479
0.0016785102
0.0012517455
0.00090897164
0.00064703788
0.00045701366
0.0013884672
0.0010942158
0.00082349881
0.0006041191
0.00044189957
0.00093151758
0.00090223495
0.00072864571
0.0005522974
0.00042176144
)
;
    }
    procBoundary12to15
    {
        type            processor;
        value           nonuniform List<scalar> 
25
(
0.00072598787
0.00074367235
0.0006447279
0.00045403407
0.00020036452
0.00068981903
0.00070567283
0.00060820205
0.00042310273
0.00017954833
0.000685953
0.00068946856
0.0005857294
0.00040007163
0.00015763384
0.00071286665
0.00070050244
0.00058264695
0.00038795371
0.00014061464
0.00075554592
0.00072878941
0.00059127427
0.00038154097
0.00013469716
)
;
    }
    procBoundary12to21
    {
        type            processor;
        value           nonuniform List<scalar> 
25
(
-0.0019090161
-0.0012208749
-0.00071010565
-0.00037669774
-4.5208685e-05
-0.0010471928
-0.00073628459
-0.00045552617
-0.00022481063
7.9148565e-06
-0.00059893291
-0.00044511721
-0.00028591192
-0.00013792235
1.4086321e-05
-0.00035094147
-0.00027526998
-0.00018559122
-8.9273731e-05
1.688664e-05
-0.000198937
-0.00017473139
-0.00013256671
-7.6840039e-05
-7.5289471e-06
)
;
    }
}


// ************************************************************************* //
