/*--------------------------------*- C++ -*----------------------------------*\
| =========                 |                                                 |
| \\      /  F ield         | OpenFOAM: The Open Source CFD Toolbox           |
|  \\    /   O peration     | Version:  3.0.1                                 |
|   \\  /    A nd           | Web:      www.OpenFOAM.org                      |
|    \\/     M anipulation  |                                                 |
\*---------------------------------------------------------------------------*/
FoamFile
{
    version     2.0;
    format      ascii;
    class       volVectorField;
    location    "0.1";
    object      U;
}
// * * * * * * * * * * * * * * * * * * * * * * * * * * * * * * * * * * * * * //

dimensions      [0 1 -1 0 0 0 0];

internalField   nonuniform List<vector> 
125
(
(-1.7489349e-06 1.192589e-05 3.7046632e-06)
(2.94583e-06 9.9013134e-06 3.1225899e-06)
(5.8516287e-06 7.6438709e-06 2.1283403e-06)
(7.6670695e-06 5.3512797e-06 9.9666239e-07)
(8.5945737e-06 2.5677827e-06 -6.0904492e-08)
(-1.7740451e-06 7.8356975e-06 1.908034e-06)
(1.5188828e-06 7.1605382e-06 1.7169457e-06)
(3.902294e-06 5.7052421e-06 1.2749241e-06)
(5.4373094e-06 3.8886775e-06 7.1866447e-07)
(6.2105094e-06 1.8344572e-06 1.4455523e-07)
(-1.4154022e-06 5.1715095e-06 1.0227296e-06)
(8.153746e-07 4.9977366e-06 9.5686943e-07)
(2.579768e-06 4.1029367e-06 7.5661411e-07)
(3.7962846e-06 2.8051555e-06 4.797642e-07)
(4.4301635e-06 1.2954854e-06 1.7211831e-07)
(-1.0383445e-06 3.4593059e-06 5.6774265e-07)
(4.5031001e-07 3.4339215e-06 5.4569e-07)
(1.7097129e-06 2.893172e-06 4.5575178e-07)
(2.629858e-06 2.0092731e-06 3.1588909e-07)
(3.1219671e-06 9.0950656e-07 1.4662848e-07)
(-7.5297351e-07 2.2995088e-06 3.2237096e-07)
(2.4924072e-07 2.3214269e-06 3.3079341e-07)
(1.1551196e-06 1.9968783e-06 2.8494821e-07)
(1.8126192e-06 1.4048038e-06 2.0554776e-07)
(2.1675686e-06 6.2419778e-07 1.0946069e-07)
(-1.8575438e-06 9.5398679e-06 2.1870951e-06)
(2.4126896e-06 8.0518198e-06 2.1315027e-06)
(5.0328293e-06 6.4398366e-06 1.9046231e-06)
(6.6724845e-06 4.9196913e-06 1.4011262e-06)
(7.5734043e-06 2.8681833e-06 5.8991567e-07)
(-1.7102765e-06 6.6582587e-06 1.0933771e-06)
(1.3185232e-06 6.1522964e-06 1.1418427e-06)
(3.5197332e-06 4.97976e-06 1.0405217e-06)
(4.9379474e-06 3.5230541e-06 7.791164e-07)
(5.6861978e-06 1.8544661e-06 3.7981677e-07)
(-1.3478438e-06 4.5922962e-06 5.5781147e-07)
(7.3419089e-07 4.4622304e-06 6.0832991e-07)
(2.403587e-06 3.6961291e-06 5.7174974e-07)
(3.5471906e-06 2.5764199e-06 4.4832164e-07)
(4.1560798e-06 1.2638118e-06 2.4831774e-07)
(-9.9235525e-07 3.1526611e-06 2.8857721e-07)
(4.2235611e-07 3.1535291e-06 3.2691329e-07)
(1.6339226e-06 2.6689516e-06 3.2224059e-07)
(2.50563e-06 1.8655987e-06 2.6885011e-07)
(2.968273e-06 8.6980142e-07 1.6566486e-07)
(-7.1028988e-07 2.1449985e-06 1.4925648e-07)
(2.5048139e-07 2.1795722e-06 1.8849048e-07)
(1.1156566e-06 1.8711132e-06 1.9049476e-07)
(1.7480404e-06 1.3081055e-06 1.6257719e-07)
(2.0758462e-06 5.7771139e-07 1.1872556e-07)
(-1.5804689e-06 8.6758145e-06 -1.1961192e-08)
(2.663358e-06 7.2338474e-06 5.7219084e-07)
(5.1212522e-06 5.258676e-06 1.1972357e-06)
(6.3523621e-06 3.5963431e-06 1.4971343e-06)
(6.8244423e-06 2.0916109e-06 1.243082e-06)
(-1.4695952e-06 6.2064138e-06 -7.6019759e-08)
(1.4660274e-06 5.6373653e-06 2.6638726e-07)
(3.5395677e-06 4.3723687e-06 5.5405409e-07)
(4.7766044e-06 2.9358729e-06 6.7830969e-07)
(5.3733544e-06 1.4928592e-06 6.0102002e-07)
(-1.1877056e-06 4.3667097e-06 -8.7835234e-08)
(8.2931287e-07 4.1828071e-06 1.0473104e-07)
(2.4197598e-06 3.3846556e-06 2.550075e-07)
(3.4728526e-06 2.2948892e-06 3.27393e-07)
(4.0223924e-06 1.0813334e-06 3.161425e-07)
(-8.9768988e-07 3.0507509e-06 -7.2128299e-08)
(4.8397339e-07 3.0140821e-06 3.3992811e-08)
(1.6516497e-06 2.511917e-06 1.2076428e-07)
(2.4732822e-06 1.7235286e-06 1.6880317e-07)
(2.9083372e-06 7.7991438e-07 1.7571411e-07)
(-6.5946747e-07 2.1101562e-06 -5.4645547e-08)
(2.90479e-07 2.1152628e-06 9.1050761e-09)
(1.1292063e-06 1.7913959e-06 6.1196987e-08)
(1.74085e-06 1.2310843e-06 9.2616765e-08)
(2.0475027e-06 5.2384521e-07 1.1217559e-07)
(-7.604057e-07 9.3116331e-06 -2.2703007e-06)
(3.6218864e-06 7.3304523e-06 -1.0873985e-06)
(5.9577728e-06 4.4582028e-06 1.1433126e-07)
(6.7183309e-06 2.0501691e-06 9.5807268e-07)
(6.6529595e-06 6.141362e-07 1.2634196e-06)
(-1.0242165e-06 6.5823847e-06 -1.2910135e-06)
(1.948597e-06 5.6848366e-06 -6.9702689e-07)
(3.9316556e-06 4.0375319e-06 -1.1608876e-07)
(4.9849133e-06 2.3533128e-06 3.2111564e-07)
(5.4054605e-06 9.2752652e-07 5.7011842e-07)
(-9.5190437e-07 4.5961876e-06 -7.2635705e-07)
(1.0770336e-06 4.229836e-06 -4.4375897e-07)
(2.626249e-06 3.2628393e-06 -1.5007503e-07)
(3.6083256e-06 2.0669133e-06 1.0032766e-07)
(4.0914448e-06 8.3850588e-07 2.8417672e-07)
(-7.7804605e-07 3.1858508e-06 -4.112306e-07)
(6.1524869e-07 3.0579032e-06 -2.7499816e-07)
(1.768733e-06 2.4751411e-06 -1.166356e-07)
(2.5605799e-06 1.6308225e-06 2.9089543e-08)
(2.9722868e-06 6.6583451e-07 1.4944426e-07)
(-6.029097e-07 2.191291e-06 -2.5492619e-07)
(3.6632392e-07 2.1482288e-06 -1.7706864e-07)
(1.1991683e-06 1.7796132e-06 -8.40662e-08)
(1.799019e-06 1.1879936e-06 4.4440992e-09)
(2.0945482e-06 4.6551313e-07 7.3138409e-08)
(5.3622472e-07 1.1392251e-05 -4.06337e-06)
(5.04799e-06 8.263412e-06 -2.4777648e-06)
(7.1667234e-06 4.3441395e-06 -1.1385718e-06)
(7.5014504e-06 1.1904169e-06 -2.1336419e-07)
(7.1492213e-06 -5.0170022e-07 4.7552155e-07)
(-4.386355e-07 7.7503575e-06 -2.2408907e-06)
(2.6409522e-06 6.2810049e-06 -1.5066707e-06)
(4.5577102e-06 4.1079624e-06 -8.0885409e-07)
(5.4628116e-06 2.0781279e-06 -2.4110919e-07)
(5.7972055e-06 5.136164e-07 2.4851232e-07)
(-6.796527e-07 5.2464925e-06 -1.2576681e-06)
(1.4055949e-06 4.6048359e-06 -9.1171784e-07)
(2.9638464e-06 3.3841088e-06 -5.3777591e-07)
(3.9071044e-06 2.0028631e-06 -1.9005438e-07)
(4.3635872e-06 6.6065928e-07 1.3607246e-07)
(-6.4300711e-07 3.5221817e-06 -7.2010061e-07)
(7.7856839e-07 3.2807724e-06 -5.5525029e-07)
(1.9557374e-06 2.5779258e-06 -3.5006556e-07)
(2.7393621e-06 1.6276451e-06 -1.3571896e-07)
(3.1546223e-06 5.6887607e-07 8.1842996e-08)
(-5.3753232e-07 2.3534372e-06 -4.212622e-07)
(4.6133899e-07 2.2623404e-06 -3.5080096e-07)
(1.310719e-06 1.8309021e-06 -2.4327153e-07)
(1.8980546e-06 1.1832848e-06 -1.168728e-07)
(2.201762e-06 4.1887759e-07 1.2072451e-08)
)
;

boundaryField
{
    movingWall
    {
        type            fixedValue;
        value           nonuniform 0();
    }
    CPLReceiveMD
    {
        type            fixedValue;
        value           nonuniform 0();
    }
    streamwiseIn
    {
        type            cyclic;
    }
    streamwiseOut
    {
        type            cyclic;
    }
    front
    {
        type            cyclic;
    }
    back
    {
        type            cyclic;
    }
    procBoundary12to3
    {
        type            processor;
        value           nonuniform List<vector> 
25
(
(-1.4313005e-06 1.4933063e-05 4.0892614e-06)
(3.9890125e-06 1.2095276e-05 3.2974664e-06)
(7.1587569e-06 8.7077454e-06 2.018394e-06)
(8.8617293e-06 5.3108337e-06 7.5425024e-07)
(9.5575125e-06 1.8380453e-06 -1.7476568e-07)
(-1.7292156e-06 9.3401923e-06 2.1924889e-06)
(1.9516331e-06 8.3180169e-06 1.8774431e-06)
(4.5180144e-06 6.3514862e-06 1.2918816e-06)
(6.0683162e-06 4.0399523e-06 6.4790034e-07)
(6.8059659e-06 1.6214433e-06 7.4921309e-08)
(-1.4384634e-06 5.9325875e-06 1.2156119e-06)
(1.0003064e-06 5.6334862e-06 1.0951747e-06)
(2.8806923e-06 4.5153014e-06 8.1186642e-07)
(4.1316863e-06 2.9791952e-06 4.6490402e-07)
(4.7901148e-06 1.2617385e-06 1.2525597e-07)
(-1.0727863e-06 3.8530197e-06 7.0761869e-07)
(5.3434698e-07 3.7796051e-06 6.5867316e-07)
(1.8637235e-06 3.1406175e-06 5.1253629e-07)
(2.8147533e-06 2.1398152e-06 3.2056889e-07)
(3.3320129e-06 9.3245904e-07 1.2049049e-07)
(-7.861286e-07 2.5153056e-06 4.3261501e-07)
(2.8790414e-07 2.5158859e-06 4.0858107e-07)
(1.2409023e-06 2.142798e-06 3.3811572e-07)
(1.9235279e-06 1.4877159e-06 2.3168405e-07)
(2.2872927e-06 6.4763914e-07 1.0090468e-07)
)
;
    }
    procBoundary12to9
    {
        type            processor;
        value           nonuniform List<vector> 
25
(
(-2.71662e-07 1.7912933e-05 7.3012289e-06)
(5.8009019e-06 1.2572655e-05 5.7604024e-06)
(8.4523278e-06 9.8571121e-06 3.5428329e-06)
(1.0513398e-05 7.8697483e-06 1.1098069e-06)
(1.1815625e-05 3.7874949e-06 -8.8558281e-07)
(-1.1305645e-06 1.3264554e-05 4.3434525e-06)
(4.4185545e-06 9.0342666e-06 3.8093088e-06)
(6.6518616e-06 7.7950743e-06 3.4257166e-06)
(8.5096006e-06 7.7602237e-06 2.534053e-06)
(9.8433486e-06 5.0610342e-06 8.5598865e-07)
(-1.1514241e-06 1.2206192e-05 1.5221505e-07)
(4.883166e-06 8.4672923e-06 9.8775474e-07)
(7.177072e-06 5.4290892e-06 2.5356878e-06)
(7.9436696e-06 4.2959847e-06 3.5478319e-06)
(8.0376308e-06 3.0035059e-06 2.8550671e-06)
(2.6440078e-07 1.3324519e-05 -4.0074498e-06)
(6.8020272e-06 9.0621169e-06 -1.7265916e-06)
(9.2119388e-06 3.7354582e-06 7.9844776e-07)
(8.8289799e-06 1.4474505e-07 2.7270418e-06)
(7.1416679e-06 -1.2464193e-06 3.1634295e-06)
(3.1013973e-06 1.6726767e-05 -7.4190494e-06)
(9.6890635e-06 1.0476353e-05 -3.9549224e-06)
(1.1630705e-05 3.020595e-06 -1.3421526e-06)
(1.0308651e-05 -2.5697319e-06 9.2360766e-08)
(7.5291512e-06 -4.6844839e-06 8.8962992e-07)
)
;
    }
    procBoundary12to13
    {
        type            processor;
        value           nonuniform List<vector> 
25
(
(8.6407459e-06 -2.5383582e-07 -9.8744583e-07)
(6.3057525e-06 -2.7573268e-07 -4.0110366e-07)
(4.5256051e-06 -2.833869e-07 -1.5427082e-07)
(3.1881083e-06 -2.5332179e-07 -4.7850805e-08)
(2.1995078e-06 -2.1893644e-07 -5.8987496e-09)
(7.7979605e-06 7.6254048e-07 -3.690051e-07)
(5.8520803e-06 1.0572962e-07 -5.8038634e-08)
(4.2635859e-06 -1.4150492e-07 4.0550552e-08)
(3.0274234e-06 -2.1463486e-07 5.5220236e-08)
(2.1063021e-06 -2.0021785e-07 4.2511358e-08)
(7.0046659e-06 9.3206668e-07 5.7668955e-07)
(5.5297089e-06 1.3382298e-07 3.9757242e-07)
(4.1234531e-06 -1.7012803e-07 2.6275805e-07)
(2.965139e-06 -2.5136099e-07 1.7281695e-07)
(2.0710914e-06 -2.2129908e-07 1.1131881e-07)
(6.6851784e-06 3.1396176e-07 1.2828516e-06)
(5.5196876e-06 -2.0820188e-07 7.4496672e-07)
(4.1703835e-06 -3.6626039e-07 4.4152251e-07)
(3.0090824e-06 -3.660741e-07 2.7537469e-07)
(2.101087e-06 -2.9457456e-07 1.5870338e-07)
(7.2345541e-06 -5.4152886e-07 1.3458615e-06)
(5.9389397e-06 -7.0750615e-07 7.9987976e-07)
(4.4364832e-06 -6.3972005e-07 4.691804e-07)
(3.1653052e-06 -5.3418012e-07 2.6420448e-07)
(2.2060561e-06 -4.1382568e-07 1.4836318e-07)
)
;
    }
    procBoundary12to14throughstreamwiseIn
    {
        type            processorCyclic;
        value           nonuniform List<vector> 
25
(
(-8.0754489e-06 1.1403696e-05 3.5488333e-06)
(-5.5457143e-06 6.8270054e-06 1.6980066e-06)
(-3.7493983e-06 4.262036e-06 8.6624982e-07)
(-2.5084555e-06 2.7714929e-06 4.6525891e-07)
(-1.6719411e-06 1.826102e-06 2.549547e-07)
(-7.4193594e-06 8.6315317e-06 1.9630368e-06)
(-5.1156721e-06 5.6425963e-06 8.3739288e-07)
(-3.4843018e-06 3.7443092e-06 3.8063331e-07)
(-2.3562849e-06 2.5159752e-06 1.8625868e-07)
(-1.5904809e-06 1.6937869e-06 9.498444e-08)
(-6.8699175e-06 7.5520185e-06 -5.2494731e-07)
(-4.7464256e-06 5.244602e-06 -4.1967272e-07)
(-3.2749626e-06 3.6109018e-06 -2.9120838e-07)
(-2.2446954e-06 2.485844e-06 -1.8031639e-07)
(-1.5290918e-06 1.6898058e-06 -9.8275102e-08)
(-6.2955451e-06 8.6190696e-06 -3.2040922e-06)
(-4.4676319e-06 5.8763353e-06 -1.7279866e-06)
(-3.1429272e-06 3.9836655e-06 -9.5181184e-07)
(-2.18138e-06 2.7089085e-06 -5.2968094e-07)
(-1.5048987e-06 1.8076775e-06 -2.9900379e-07)
(-5.7264303e-06 1.1803445e-05 -5.2709551e-06)
(-4.2889493e-06 7.4968823e-06 -2.6564655e-06)
(-3.080261e-06 4.8092075e-06 -1.3597249e-06)
(-2.1607788e-06 3.1386521e-06 -7.290311e-07)
(-1.5163924e-06 2.0348142e-06 -4.3878017e-07)
)
;
    }
    procBoundary12to15
    {
        type            processor;
        value           nonuniform List<vector> 
25
(
(-5.4301967e-07 1.4949313e-06 1.974356e-07)
(1.4767949e-07 1.5413757e-06 2.0937629e-07)
(7.9308982e-07 1.3363262e-06 1.840669e-07)
(1.2571774e-06 9.3734314e-07 1.362787e-07)
(1.4982268e-06 4.1372243e-07 7.6700733e-08)
(-5.0656998e-07 1.4317724e-06 9.9224617e-08)
(1.4847076e-07 1.4705706e-06 1.2074919e-07)
(7.6245589e-07 1.2686006e-06 1.1675813e-07)
(1.2122283e-06 8.8162535e-07 9.5130589e-08)
(1.4599497e-06 3.7804749e-07 6.5312281e-08)
(-4.7223293e-07 1.420584e-06 -2.5835817e-08)
(1.65213e-07 1.4387202e-06 2.6493677e-09)
(7.6747122e-07 1.2256166e-06 2.9264358e-08)
(1.2057316e-06 8.3871292e-07 4.8691322e-08)
(1.4559538e-06 3.402239e-07 6.3515854e-08)
(-4.3749482e-07 1.465809e-06 -1.6794964e-07)
(2.0357093e-07 1.4578836e-06 -1.2792051e-07)
(8.0849784e-07 1.2201919e-06 -7.7129362e-08)
(1.2464798e-06 8.157038e-07 -1.8709977e-08)
(1.4897186e-06 3.0463727e-07 4.4476647e-08)
(-4.1548089e-07 1.5539024e-06 -2.7926127e-07)
(2.5603329e-07 1.5205418e-06 -2.2435337e-07)
(8.7668175e-07 1.2479008e-06 -1.531295e-07)
(1.3273376e-06 8.1111861e-07 -7.4713688e-08)
(1.5575119e-06 2.8554742e-07 4.5056259e-09)
)
;
    }
    procBoundary12to21
    {
        type            processor;
        value           nonuniform List<vector> 
25
(
(2.0327846e-06 1.4489792e-05 -4.773108e-06)
(6.5466846e-06 9.7787039e-06 -3.1919362e-06)
(8.2221734e-06 4.9915014e-06 -2.0527331e-06)
(8.3324243e-06 1.7166992e-06 -1.4168413e-06)
(8.2121852e-06 -2.6981401e-08 -7.0419483e-07)
(1.2557833e-07 9.3880866e-06 -2.5960404e-06)
(3.3806337e-06 7.2508836e-06 -1.9328121e-06)
(5.1972171e-06 4.6383278e-06 -1.3019138e-06)
(6.0422797e-06 2.3766226e-06 -7.888312e-07)
(6.4464495e-06 5.8807743e-07 -2.3323544e-07)
(-5.0389731e-07 6.1169778e-06 -1.4550555e-06)
(1.7969258e-06 5.1812564e-06 -1.1558686e-06)
(3.3479125e-06 3.7216278e-06 -8.0704303e-07)
(4.2821739e-06 2.1723036e-06 -4.6647776e-07)
(4.7506796e-06 6.7183655e-07 -9.4423325e-08)
(-6.0426524e-07 4.0222567e-06 -8.4878408e-07)
(9.8528373e-07 3.61882e-06 -7.0534106e-07)
(2.1882643e-06 2.7696455e-06 -5.1043575e-07)
(2.9924884e-06 1.7040041e-06 -2.9586338e-07)
(3.3722102e-06 5.418345e-07 -5.9213005e-08)
(-5.149305e-07 2.6321303e-06 -5.0608864e-07)
(5.443146e-07 2.4791257e-06 -4.4751024e-07)
(1.4330965e-06 1.9765493e-06 -3.4654758e-07)
(2.054363e-06 1.2489989e-06 -2.1946768e-07)
(2.3597842e-06 3.8817576e-07 -6.2049786e-08)
)
;
    }
}


// ************************************************************************* //
