/*--------------------------------*- C++ -*----------------------------------*\
| =========                 |                                                 |
| \\      /  F ield         | OpenFOAM: The Open Source CFD Toolbox           |
|  \\    /   O peration     | Version:  3.0.1                                 |
|   \\  /    A nd           | Web:      www.OpenFOAM.org                      |
|    \\/     M anipulation  |                                                 |
\*---------------------------------------------------------------------------*/
FoamFile
{
    version     2.0;
    format      ascii;
    class       volScalarField;
    location    "0.1";
    object      p;
}
// * * * * * * * * * * * * * * * * * * * * * * * * * * * * * * * * * * * * * //

dimensions      [0 2 -2 0 0 0 0];

internalField   nonuniform List<scalar> 
125
(
-0.0074815852
-0.039460934
-0.060835076
-0.074850983
-0.097999835
-0.01839134
-0.037152178
-0.052842589
-0.062082175
-0.067681654
-0.02920225
-0.039260933
-0.048423337
-0.054058294
-0.056469908
-0.03718143
-0.042153118
-0.047253775
-0.050904803
-0.053030763
-0.042566551
-0.044881578
-0.047718048
-0.050186985
-0.052145532
-0.002021808
-0.043299833
-0.081679244
-0.066168111
-0.031034378
-0.010176124
-0.038163126
-0.056566091
-0.054366688
-0.045911474
-0.023593481
-0.038169722
-0.048276658
-0.050387545
-0.049572615
-0.033962998
-0.040811935
-0.046469392
-0.049276152
-0.050832826
-0.040816537
-0.043860616
-0.047033862
-0.049425293
-0.051420154
0.003117366
-0.062410935
-0.094830073
-0.036160359
0.0097032131
-0.0050367413
-0.043614646
-0.0640283
-0.045100846
-0.02572308
-0.020424586
-0.038897877
-0.049714106
-0.046737946
-0.042248286
-0.032088595
-0.040268643
-0.046167035
-0.047633086
-0.048274751
-0.039703852
-0.043193547
-0.046498753
-0.048620286
-0.050499396
-0.0055406559
-0.08684617
-0.2898983
-0.038782584
0.20291846
-0.011750983
-0.053204364
-0.09442632
-0.043598926
0.007433948
-0.022603337
-0.041193866
-0.054155408
-0.045343257
-0.03533922
-0.032411895
-0.040437911
-0.046421698
-0.046724585
-0.046389053
-0.039525805
-0.042914227
-0.046173932
-0.04807147
-0.049822625
-0.011432523
-0.052283751
-0.09361526
-0.044997729
0.00073480002
-0.014064588
-0.041463334
-0.061554299
-0.045383567
-0.026282656
-0.023737458
-0.037871331
-0.047842969
-0.045495979
-0.041223512
-0.032857976
-0.039427237
-0.044866449
-0.046488198
-0.047327746
-0.039644216
-0.042521818
-0.045633718
-0.047826931
-0.049867842
)
;

boundaryField
{
    movingWall
    {
        type            zeroGradient;
    }
    CPLReceiveMD
    {
        type            zeroGradient;
    }
    streamwiseIn
    {
        type            cyclic;
    }
    streamwiseOut
    {
        type            cyclic;
    }
    front
    {
        type            cyclic;
    }
    back
    {
        type            cyclic;
    }
    procBoundary18to0throughback
    {
        type            processorCyclic;
        value           nonuniform List<scalar> 
25
(
-1.8622556e-05
-0.0097576289
-0.022418843
-0.032615494
-0.039699035
-0.026635748
-0.029842688
-0.033568662
-0.037989975
-0.042078937
-0.055985621
-0.046597553
-0.043079681
-0.043378115
-0.045141557
-0.062902295
-0.050334463
-0.046689564
-0.046705734
-0.047807332
-0.037561328
-0.042191157
-0.046237974
-0.048757576
-0.050222798
)
;
    }
    procBoundary18to9
    {
        type            processor;
        value           nonuniform List<scalar> 
25
(
-0.013114618
-0.014970285
-0.055592878
-0.094846675
-0.2277959
-0.025703365
-0.034792681
-0.052016326
-0.068749524
-0.09042948
-0.034476578
-0.040489659
-0.048828496
-0.056071488
-0.060857172
-0.040349409
-0.043529428
-0.047851035
-0.051615708
-0.053936067
-0.044329006
-0.045855665
-0.048204573
-0.050509705
-0.052331474
)
;
    }
    procBoundary18to19
    {
        type            processor;
        value           nonuniform List<scalar> 
25
(
-0.056303706
-0.053257639
-0.053574484
-0.053884658
-0.053886295
-0.03623041
-0.047126539
-0.051625291
-0.053371781
-0.05382987
-0.023158723
-0.038163341
-0.047847216
-0.05203412
-0.053397798
0.0015324648
-0.02754105
-0.04425636
-0.050816114
-0.052959945
-0.024846962
-0.037052114
-0.046681698
-0.051272915
-0.052975023
)
;
    }
    procBoundary18to20throughstreamwiseIn
    {
        type            processorCyclic;
        value           nonuniform List<scalar> 
25
(
0.041901208
-0.00059698163
-0.022320015
-0.034875234
-0.042117572
0.080112373
0.026151853
-0.0096199288
-0.029261971
-0.039606826
0.14816676
0.052629569
-0.00034257746
-0.025733352
-0.038084021
0.073316291
0.029961863
-0.0060995516
-0.026977484
-0.038222293
0.045621648
0.013762378
-0.012603371
-0.029331072
-0.039052126
)
;
    }
    procBoundary18to21
    {
        type            processor;
        value           nonuniform List<scalar> 
25
(
-0.046084436
-0.047108238
-0.048703101
-0.050398874
-0.052039543
-0.045130135
-0.046442408
-0.048237509
-0.050020749
-0.051780563
-0.04447573
-0.04593626
-0.047816025
-0.049596187
-0.051412674
-0.044244879
-0.045644715
-0.047511724
-0.049273548
-0.051119808
-0.044253832
-0.045453534
-0.047259275
-0.049092934
-0.051039374
)
;
    }
}


// ************************************************************************* //
