/*--------------------------------*- C++ -*----------------------------------*\
| =========                 |                                                 |
| \\      /  F ield         | OpenFOAM: The Open Source CFD Toolbox           |
|  \\    /   O peration     | Version:  3.0.1                                 |
|   \\  /    A nd           | Web:      www.OpenFOAM.org                      |
|    \\/     M anipulation  |                                                 |
\*---------------------------------------------------------------------------*/
FoamFile
{
    version     2.0;
    format      ascii;
    class       surfaceScalarField;
    location    "0.1";
    object      phi;
}
// * * * * * * * * * * * * * * * * * * * * * * * * * * * * * * * * * * * * * //

dimensions      [0 3 -1 0 0 0 0];

internalField   nonuniform List<scalar> 
300
(
0.11275569
0.021811867
-0.010924488
0.15862436
-0.004603219
0.0076839656
0.14344194
-0.015974752
0.041649287
0.14639758
-0.025524523
-0.017379432
-0.06058714
-0.13378805
0.037530469
0.021621357
-0.016426554
0.031406283
0.0042201042
0.002026951
0.01850922
-0.0088374841
0.0074481301
0.011211021
-0.016047764
-0.015430968
-0.022427728
-0.043539321
0.020114336
0.015959792
-0.011214995
0.018321953
0.0057853325
-0.0021808929
0.011268874
-0.0023384795
-0.00029223373
0.004820387
-0.0063074801
-0.0073400966
-0.0068821364
-0.013792729
0.0099419634
0.01077207
-0.0064359362
0.010199365
0.0054582682
-0.0026820647
0.007300136
0.00092936272
-0.0015685818
0.0042497195
-0.0014355719
-0.0032567659
-0.0017716637
-0.004395112
0.0046298644
-0.0035000047
0.0056714519
-0.0020422014
0.0049353177
-0.0013686565
0.0039138594
-0.0015234017
-0.0014505079
0.18636621
0.016313917
-0.010264452
0.16614023
-0.010266357
0.0381993
0.23163645
-0.050169715
0.026295705
0.29776053
-0.023573324
-0.059937174
0.029712324
-0.081427408
0.055998608
0.026832905
-0.010270839
0.036819048
1.115332e-05
0.010903624
-0.0043234465
-0.01657495
0.014939077
-0.01680738
-0.0079548587
-0.018524421
0.0073185198
-0.040387512
0.029148661
0.020739298
-0.0063353236
0.020210382
0.0052838093
0.0014561676
0.0042243236
-0.0036163701
0.0028759612
-0.0016267205
-0.002223151
-0.0072973937
0.0025215846
-0.01464781
0.013695721
0.013708634
-0.0037482657
0.011312972
0.0060978672
-0.0010868587
0.0056130567
0.0011288573
-0.00060486755
0.0031128766
0.00029842436
-0.0032856086
0.0011750279
-0.0051152473
0.0060875251
-0.0022252105
0.0063450601
-0.0013342763
0.0047809759
-0.0010703549
0.0039872634
-0.0016098727
-0.0018411564
0.31354245
0.016320497
0.017310227
0.3404562
-0.037554288
0.048816708
0.038868599
-0.061579014
0.38946262
-0.044095347
0.017854321
0.0052272835
0.070817084
-0.38578029
0.077201462
0.030774263
0.013418666
0.04087899
-0.0094337631
0.019161353
-0.037787802
-0.028639655
0.060731376
-0.038720154
0.0032727066
-0.0030074975
0.033061406
-0.066254403
0.036941806
0.023327949
0.0043530631
0.021626964
0.0027388523
0.0045866037
-0.0059441843
-0.0070982915
0.0088720793
-0.0089717775
0.0017915478
-0.0027902062
0.0120577
-0.013809048
0.016357259
0.015232187
0.00064520158
0.011794477
0.0058496761
0.00033719864
0.0029333262
0.00066249264
0.00050758943
0.00128432
0.001975029
-0.0018171074
0.0044509989
-0.0037698505
0.0069784101
-0.00035606012
0.006608906
-0.00055852588
0.0042416938
-0.00064956517
0.0037562618
-0.0010973674
-0.0013530997
0.2944479
0.012414728
0.011777619
0.47951748
-0.067246415
-0.069039805
1.6512937
-0.39039724
-0.39190147
1.6345098
0.0096223218
0.012420209
0.39042573
0.40368459
0.082938328
0.021697644
0.0046305969
0.082391564
-0.024033058
-0.023463817
-0.10104984
-0.080503197
-0.065682662
-0.10147306
0.0034892293
0.0035690419
0.085507718
0.067369566
0.037174832
0.01961577
0.0022684243
0.025909969
-0.0015171414
-0.0066409817
-0.017609924
-0.015484779
-0.012615589
-0.019993976
0.0027638836
0.00030485911
0.022117676
0.011758025
0.016048752
0.014229175
0.00089218214
0.011964142
0.0049519711
-0.0020203012
0.00060801255
-0.00049836234
-0.0031087857
-0.00066907157
0.0026946857
-0.00047288757
0.0068713497
0.0018754899
0.0067757359
0.00023732868
0.0065176326
-0.00078401928
0.0037937341
-0.0010796148
0.0035003549
-0.00048876648
9.0236623e-05
0.23080193
0.0052667586
0.2346213
-0.021629226
-0.018080782
-0.064089867
-0.0421958
0.00076749438
0.054018634
0.054827
0.019337893
0.040194412
-0.0071877628
-0.032298718
-0.027432718
-0.038165471
0.00022439126
0.029892216
0.028261522
0.018238561
0.019935562
0.0031096745
-0.004687626
-0.0059566767
-0.0085373185
0.0019853146
0.012212433
0.013135517
0.013573761
0.010875463
0.0061897188
0.0032439314
0.0015343588
0.0016797284
0.0026785544
0.0050821073
0.0057542515
0.0062219067
0.0043844287
0.0040792539
)
;

boundaryField
{
    movingWall
    {
        type            calculated;
        value           nonuniform 0();
    }
    CPLReceiveMD
    {
        type            calculated;
        value           uniform 0;
    }
    streamwiseIn
    {
        type            cyclic;
        value           nonuniform 0();
    }
    streamwiseOut
    {
        type            cyclic;
        value           nonuniform 0();
    }
    front
    {
        type            cyclic;
        value           nonuniform 0();
    }
    back
    {
        type            cyclic;
        value           nonuniform 0();
    }
    procBoundary18to0throughback
    {
        type            processorCyclic;
        value           nonuniform List<scalar> 
25
(
-0.022802866
-0.0086052555
-0.0026344603
-0.00048381598
0.00011014388
-0.051264672
-0.023237143
-0.0086027802
-0.0028733025
-0.00088523189
-0.075177038
-0.029920434
-0.0095255963
-0.0029758846
-0.00098391973
0.035761661
0.0099019187
0.0023868573
0.00043502409
-3.9068863e-05
0.076519164
0.031822997
0.010027782
0.0028590432
0.00070982223
)
;
    }
    procBoundary18to9
    {
        type            processor;
        value           nonuniform List<scalar> 
25
(
0.011264573
-0.048902273
-0.010474524
0.039942155
0.2591604
0.014619667
-0.004713743
-0.0016544878
0.01332211
0.045458079
0.010546775
0.0024575213
0.00080955035
0.0040237273
0.0087689392
0.0063352605
0.0027525573
0.0011944546
0.0014214249
0.0018098911
0.0035249069
0.0019483921
0.00097326928
0.00064550759
0.00037176099
)
;
    }
    procBoundary18to19
    {
        type            processor;
        value           nonuniform List<scalar> 
25
(
0.08158794
-0.028790469
-0.005786394
0.0017072946
0.0034785205
0.21571659
0.0024802358
0.0041054728
0.0050766177
0.0048166308
0.18932698
0.024891866
0.011192863
0.0075162516
0.0057939098
0.4546253
0.069892572
0.017822158
0.0088505112
0.0062714093
0.23095506
0.021565233
0.010911818
0.007887808
0.0062109441
)
;
    }
    procBoundary18to20throughstreamwiseIn
    {
        type            processorCyclic;
        value           nonuniform List<scalar> 
25
(
-0.13494482
-0.035582724
-0.013759951
-0.0046116651
-0.00089915635
-0.20332438
-0.072646712
-0.027939057
-0.0093995501
-0.0024196828
-0.35741209
-0.11534068
-0.040154282
-0.012706787
-0.0032393919
-0.30131314
-0.083451816
-0.032998954
-0.010865465
-0.0026069784
-0.20141252
-0.055661169
-0.022260394
-0.0070512005
-0.0011846756
)
;
    }
    procBoundary18to21
    {
        type            processor;
        value           nonuniform List<scalar> 
25
(
0.0070367416
0.0044537891
0.001970196
0.00042364548
-0.00021238331
0.0086283144
0.0051639338
0.0024072325
0.0011908497
0.00072095723
0.0095450791
0.0054856952
0.0026343551
0.0019519913
0.0018271688
0.0094394279
0.0054612169
0.0026751808
0.0024045098
0.0025955649
0.0092204643
0.0058639732
0.0032512346
0.002532498
0.0023438753
)
;
    }
}


// ************************************************************************* //
