/*--------------------------------*- C++ -*----------------------------------*\
| =========                 |                                                 |
| \\      /  F ield         | OpenFOAM: The Open Source CFD Toolbox           |
|  \\    /   O peration     | Version:  3.0.1                                 |
|   \\  /    A nd           | Web:      www.OpenFOAM.org                      |
|    \\/     M anipulation  |                                                 |
\*---------------------------------------------------------------------------*/
FoamFile
{
    version     2.0;
    format      ascii;
    class       volVectorField;
    location    "0.1";
    object      U;
}
// * * * * * * * * * * * * * * * * * * * * * * * * * * * * * * * * * * * * * //

dimensions      [0 1 -1 0 0 0 0];

internalField   nonuniform List<vector> 
125
(
(0.00036731623 2.7278925e-05 -2.7741775e-05)
(0.0002134281 -5.7500711e-06 7.0731823e-05)
(0.00058779694 -1.9980548e-05 6.5126165e-05)
(0.00017056871 -3.1926621e-05 -7.1701241e-05)
(0.00037679744 -7.5774648e-05 -0.00049116205)
(9.1428819e-05 5.430693e-05 -3.8816599e-05)
(8.614637e-05 -4.7698175e-07 8.4274773e-06)
(6.2446709e-05 -3.1027192e-05 1.1375153e-05)
(3.7115665e-05 -5.1985187e-05 -3.5956926e-05)
(-2.1957681e-05 -0.00010380346 -0.00011129307)
(4.2353704e-05 4.6977874e-05 -2.72066e-05)
(4.8051404e-05 1.2505909e-05 -5.799044e-06)
(3.6990295e-05 -1.3967879e-05 -1.3794792e-06)
(2.0113198e-05 -2.7940448e-05 -1.421021e-05)
(-1.2126994e-06 -3.6627328e-05 -2.8210961e-05)
(1.8197451e-05 3.3414371e-05 -1.5966264e-05)
(2.5180558e-05 1.4056413e-05 -6.7943683e-06)
(2.1875683e-05 -1.7581038e-06 -3.4549759e-06)
(1.4436683e-05 -9.6746286e-06 -5.8495959e-06)
(7.4434714e-06 -1.0810535e-05 -7.7582672e-06)
(6.9139213e-06 2.2260317e-05 -8.7825099e-06)
(1.2878924e-05 1.2391004e-05 -4.9892427e-06)
(1.3259222e-05 3.6264441e-06 -2.9282832e-06)
(1.1060762e-05 -1.262506e-06 -2.7119866e-06)
(9.238951e-06 -2.477815e-06 -2.2783397e-06)
(0.00046560124 2.0407073e-05 -2.651294e-05)
(0.0005609579 -1.2845305e-05 5.7340998e-05)
(0.00014248613 -6.2728229e-05 8.4983739e-05)
(0.0011012163 -2.947051e-05 -9.6647628e-05)
(0.00053720541 3.7141574e-05 -0.00026912521)
(0.0001608269 5.395023e-05 -3.3383513e-05)
(0.00011606314 -1.2828148e-05 1.6158407e-05)
(4.0527536e-05 -8.3450836e-05 2.7966019e-05)
(-2.6332095e-05 -3.9417685e-05 -4.2451582e-05)
(-1.7949211e-05 4.6294383e-05 -0.00010489546)
(7.1375846e-05 5.9468212e-05 -2.1942973e-05)
(6.1706463e-05 6.6240902e-06 -9.0708736e-07)
(3.0541794e-05 -2.5239072e-05 3.2274672e-06)
(3.2364167e-06 -1.2724379e-05 -1.82998e-05)
(3.0918499e-06 1.2302778e-05 -3.5553e-05)
(2.8877183e-05 4.3059685e-05 -1.2732431e-05)
(3.126545e-05 1.423043e-05 -4.7119042e-06)
(2.1157581e-05 -3.1034651e-06 -2.7175685e-06)
(1.0903238e-05 -2.4033975e-06 -8.1792871e-06)
(1.0233703e-05 4.6187895e-06 -1.1889543e-05)
(1.0637721e-05 2.7919923e-05 -7.1576352e-06)
(1.554329e-05 1.4078785e-05 -4.2213448e-06)
(1.3907962e-05 4.4228378e-06 -3.0494542e-06)
(1.0958595e-05 1.8630227e-06 -3.9173609e-06)
(1.100324e-05 2.3695884e-06 -4.115349e-06)
(0.0007774277 2.0420634e-05 8.823307e-06)
(0.0009061117 -4.6962274e-05 0.00010882877)
(0.0006514733 -7.704143e-05 0.00051969354)
(-0.00019784658 2.2317639e-05 -6.8386743e-05)
(0.00014188037 8.8589632e-05 -0.00058399517)
(0.00024067323 5.8889455e-05 3.9409295e-06)
(0.000147641 -5.8754452e-05 3.7604912e-05)
(3.8910936e-06 -0.00011282652 9.4650242e-05)
(-9.5748732e-05 2.6410678e-05 -2.6919698e-05)
(-1.7302018e-05 0.00012990283 -0.00013336366)
(9.6388933e-05 6.7628957e-05 -2.4751048e-06)
(7.322188e-05 -8.3644057e-06 7.560034e-06)
(1.9597596e-05 -4.4651472e-05 1.4696338e-05)
(-1.866727e-05 6.3318525e-06 -1.2611131e-05)
(2.7701643e-06 5.6378606e-05 -3.5583459e-05)
(3.6340105e-05 4.8199709e-05 -3.8779142e-06)
(3.519542e-05 1.0742156e-05 -9.353927e-07)
(1.84083e-05 -8.0350251e-06 -1.1956377e-07)
(5.2647087e-06 4.7078105e-06 -6.3791132e-06)
(1.0997354e-05 2.0627117e-05 -1.1109276e-05)
(1.277675e-05 3.0970152e-05 -3.2262529e-06)
(1.6987105e-05 1.4171897e-05 -2.3655266e-06)
(1.3563206e-05 4.1252298e-06 -2.149521e-06)
(9.9948676e-06 4.9093283e-06 -3.3843606e-06)
(1.1936003e-05 7.8446901e-06 -3.9936579e-06)
(0.00089773019 1.5517053e-05 3.6391786e-05)
(0.00087223342 -8.4125093e-05 -2.5268773e-05)
(8.8083038e-05 -0.00048803092 -3.0484565e-06)
(0.0093253172 1.2030943e-05 2.2057334e-05)
(-7.0481197e-05 0.00048806618 2.2392352e-05)
(0.00020803895 4.264558e-05 2.257761e-05)
(0.00020672268 -0.00011415212 -5.3751511e-06)
(-2.3965862e-05 -0.00058870746 -6.1851988e-06)
(-0.00025201757 1.6392319e-05 7.0556659e-07)
(-4.0137149e-05 0.0005949984 1.3983515e-06)
(8.773583e-05 5.1649368e-05 8.283665e-06)
(7.8877893e-05 -3.1916221e-05 -2.5660009e-06)
(1.0370637e-05 -0.00012000891 -4.6784145e-06)
(-4.7042799e-05 7.8162096e-06 -3.1059947e-06)
(-2.7197371e-06 0.0001345572 -2.5628891e-06)
(3.3652721e-05 4.2308537e-05 1.9243896e-06)
(3.5023801e-05 4.3048693e-06 -2.1027882e-06)
(1.571386e-05 -1.9949324e-05 -3.2509578e-06)
(-8.6474556e-08 6.823373e-06 -2.8623138e-06)
(1.022342e-05 3.620859e-05 -2.3679979e-06)
(1.1732884e-05 2.958574e-05 -1.4711311e-07)
(1.6620022e-05 1.3020893e-05 -1.6773176e-06)
(1.2889127e-05 2.7286368e-06 -2.1609143e-06)
(9.1144579e-06 6.3745629e-06 -1.9824386e-06)
(1.2212943e-05 1.1827324e-05 -1.5786289e-06)
(0.00050257454 6.5815059e-06 -1.3789219e-05)
(0.00069307031 -2.7058136e-05 -0.00015044667)
(0.00025435781 -8.0176685e-05 -0.00058384925)
(-0.00011308205 9.5528083e-07 6.0249603e-05)
(7.2877422e-05 6.75846e-05 0.00060025709)
(0.00013812704 3.0759269e-05 -4.9661301e-06)
(0.00011883482 -3.6040242e-05 -5.8396421e-05)
(9.8608665e-06 -0.0001144549 -0.00011956882)
(-8.8150461e-05 1.236745e-06 1.6839335e-05)
(-2.0798349e-05 0.00010493664 0.00012406222)
(6.3169587e-05 4.6975733e-05 -4.5653266e-07)
(6.025979e-05 -5.0920415e-06 -1.9060297e-05)
(1.9057574e-05 -4.1717231e-05 -2.7688368e-05)
(-1.6551741e-05 2.7639709e-06 3.3658108e-06)
(2.961828e-06 5.2612255e-05 2.7246203e-05)
(2.5242114e-05 3.9768931e-05 5.1120028e-07)
(3.0020073e-05 1.1630839e-05 -6.1181533e-06)
(1.7648775e-05 -5.5175249e-06 -7.6079308e-06)
(6.1476686e-06 5.8313667e-06 -4.6787841e-08)
(1.1955973e-05 2.1611377e-05 5.9210514e-06)
(8.6776e-06 2.8493416e-05 4.3497963e-07)
(1.4973304e-05 1.5070277e-05 -2.0864754e-06)
(1.3258085e-05 5.9863683e-06 -2.5795308e-06)
(1.0577153e-05 6.5148684e-06 -6.5944134e-07)
(1.286098e-05 9.2798729e-06 1.0007317e-06)
)
;

boundaryField
{
    movingWall
    {
        type            fixedValue;
        value           nonuniform 0();
    }
    CPLReceiveMD
    {
        type            fixedValue;
        value           nonuniform List<vector> 
25
(
(0.32810779 0 0)
(0.31463195 0 0)
(0.5027166 0 0)
(0.99624943 0 0)
(0.51608246 0 0)
(0.15993333 0 0)
(0.72467457 0 0)
(1.3241593 0 0)
(0.32435129 0 0)
(0.97670215 0 0)
(1.0002253 0 0)
(0.16966177 0 0)
(1.4360147 0 0)
(0.41126572 0 0)
(0.54558114 0 0)
(0.15462838 0 0)
(2.4592014 0 0)
(0.12072343 0 0)
(21.147634 0 0)
(0.2402839 0 0)
(0.84725416 0 0)
(1.2249352 0 0)
(0.34883975 0 0)
(0.055178553 0 0)
(0.24628024 0 0)
)
;
    }
    streamwiseIn
    {
        type            cyclic;
    }
    streamwiseOut
    {
        type            cyclic;
    }
    front
    {
        type            cyclic;
    }
    back
    {
        type            cyclic;
    }
    procBoundary18to0throughback
    {
        type            processorCyclic;
        value           nonuniform List<vector> 
25
(
(0.00046733419 2.4323969e-05 -2.4478749e-05)
(0.00010713395 5.5972182e-05 -2.2343233e-05)
(4.7674358e-05 5.7126696e-05 -8.5765523e-06)
(1.836609e-05 4.3200049e-05 -1.8950938e-06)
(5.7624376e-06 2.931943e-05 2.5247834e-07)
(0.00023416383 7.9946066e-06 -0.00012188791)
(9.2103035e-05 1.7305992e-05 -5.1126486e-05)
(5.1646054e-05 2.0362055e-05 -1.9212515e-05)
(2.690467e-05 2.1278691e-05 -6.4138267e-06)
(1.3605512e-05 1.835242e-05 -1.7966676e-06)
(0.00028006114 -2.3460925e-05 -0.00016290368)
(5.1264557e-05 -3.2256116e-05 -5.6860443e-05)
(3.2796743e-05 -8.0479855e-06 -1.8602393e-05)
(2.1785226e-05 5.1595125e-06 -5.9785573e-06)
(1.4316161e-05 9.2894424e-06 -1.8673313e-06)
(0.00026640269 -3.1410191e-05 0.0001608039)
(-1.0943426e-05 -4.0522024e-05 3.2123159e-05)
(7.8911332e-06 -9.0699168e-06 6.9248206e-06)
(1.3442507e-05 2.7981208e-06 1.4931985e-06)
(1.269472e-05 5.8454357e-06 2.4590956e-07)
(0.00029318996 1.157075e-05 0.00012302937)
(-1.5881082e-05 2.1687354e-05 5.622673e-05)
(6.7946761e-06 1.6415996e-05 1.9916909e-05)
(1.3648725e-05 9.9631192e-06 6.3919569e-06)
(1.3448729e-05 5.8280795e-06 1.8440648e-06)
)
;
    }
    procBoundary18to9
    {
        type            processor;
        value           nonuniform List<vector> 
25
(
(0.0011293535 3.1467146e-05 2.6360817e-05)
(0.00020947894 4.9494386e-05 1.9961277e-05)
(0.00037005018 -8.9444284e-06 -2.0615362e-06)
(0.00046977498 -6.5250181e-05 3.2279381e-05)
(-7.4228704e-05 -0.00034297042 2.8125648e-05)
(2.0746737e-05 5.3400986e-05 -2.1176459e-05)
(6.5806868e-05 6.373818e-05 -3.2241357e-06)
(8.4933073e-05 -1.6912449e-05 3.8408721e-06)
(9.6039636e-05 -9.6944232e-05 1.2524349e-05)
(-3.9123788e-05 -0.00041690107 8.4623315e-06)
(1.6805558e-05 3.6617875e-05 -2.0344268e-05)
(3.5879326e-05 2.184594e-05 -6.9688267e-06)
(3.8952966e-05 -1.0408939e-05 7.170027e-07)
(3.0067824e-05 -4.2831714e-05 4.3703876e-06)
(-7.2994967e-06 -9.1232051e-05 3.4834922e-06)
(8.4007595e-06 2.4635595e-05 -1.2999168e-05)
(1.8754162e-05 1.3420629e-05 -5.8066516e-06)
(2.0212808e-05 -1.5546612e-06 -1.0295578e-06)
(1.5206529e-05 -1.3901621e-05 1.1938868e-06)
(4.5543535e-06 -2.1313832e-05 1.7069173e-06)
(3.1013973e-06 1.6726767e-05 -7.4190494e-06)
(9.6890635e-06 1.0476353e-05 -3.9549224e-06)
(1.1630705e-05 3.020595e-06 -1.3421526e-06)
(1.0308651e-05 -2.5697319e-06 9.2360766e-08)
(7.5291512e-06 -4.6844839e-06 8.8962992e-07)
)
;
    }
    procBoundary18to19
    {
        type            processor;
        value           nonuniform List<vector> 
25
(
(0.00018483849 -7.5980473e-06 -4.7260935e-05)
(-6.48115e-05 -6.8064446e-06 -1.4928543e-05)
(-8.545711e-06 1.5664093e-06 -3.8189e-06)
(7.5132742e-06 7.7704822e-07 -1.7024645e-07)
(1.0102406e-05 -4.9379214e-07 7.6210264e-07)
(0.00049290176 2.7217245e-05 -8.2801254e-05)
(2.915017e-05 3.8463498e-05 -3.7733824e-05)
(2.1704187e-05 1.5611439e-05 -1.4316921e-05)
(1.809349e-05 5.5080312e-06 -4.6254042e-06)
(1.4301907e-05 9.6048521e-07 -1.2203093e-06)
(0.00060718375 3.7510586e-05 -9.4424254e-05)
(7.9655228e-05 6.1719247e-05 -4.8962992e-05)
(4.1165139e-05 3.4674834e-05 -1.8422682e-05)
(2.55274e-05 1.387366e-05 -6.3893965e-06)
(1.7407819e-05 4.0400592e-06 -2.1746583e-06)
(0.00087702459 7.2724195e-05 4.2118687e-06)
(0.00015528664 0.00011451163 -2.7780026e-06)
(5.4954731e-05 5.8185041e-05 -2.9143278e-06)
(2.8987124e-05 2.1756055e-05 -1.9036953e-06)
(1.876809e-05 6.6642033e-06 -1.0574612e-06)
(0.00087754836 3.051783e-05 0.00010257512)
(6.6942848e-05 5.4590431e-05 4.1015637e-05)
(3.9107112e-05 3.5549141e-05 1.2880204e-05)
(2.587537e-05 1.5730526e-05 3.3785175e-06)
(1.8151687e-05 5.3379704e-06 5.7634465e-07)
)
;
    }
    procBoundary18to20throughstreamwiseIn
    {
        type            processorCyclic;
        value           nonuniform List<vector> 
25
(
(0.00010058163 0.00010615751 -0.00027302635)
(3.5192702e-05 0.00016046519 -0.00013190419)
(8.4080019e-06 8.5696232e-05 -6.0369394e-05)
(-2.4316867e-06 4.9496186e-05 -2.7270792e-05)
(-5.3851509e-06 2.855567e-05 -1.2525566e-05)
(0.000413172 0.00013487695 -0.00026562275)
(0.00013705535 0.00022430621 -0.00013306426)
(3.8122595e-05 0.00013853453 -5.4942311e-05)
(5.4819984e-06 7.4968545e-05 -2.2854559e-05)
(-3.5600177e-06 3.9680422e-05 -1.0084174e-05)
(0.0014364113 0.00023884859 1.6932268e-05)
(0.0003049446 0.00037127795 -9.5222035e-06)
(6.9004258e-05 0.00019590595 -8.7999294e-06)
(1.1107053e-05 9.4354324e-05 -5.71093e-06)
(-2.8974007e-06 4.6687086e-05 -3.4606901e-06)
(0.00072661411 0.00010841289 0.00025626432)
(0.00017432112 0.00019856468 9.7172713e-05)
(4.6500192e-05 0.0001423458 3.0653346e-05)
(5.9523956e-06 8.0307784e-05 8.9952031e-06)
(-4.7028248e-06 4.3344183e-05 2.4218326e-06)
(0.00040887372 7.9626413e-05 5.5896194e-05)
(8.7118205e-05 0.00014553731 4.2452693e-05)
(2.0132166e-05 0.00010772842 2.1001162e-05)
(-2.5261959e-06 6.612281e-05 9.1684776e-06)
(-7.764772e-06 3.8144155e-05 3.8839715e-06)
)
;
    }
    procBoundary18to21
    {
        type            processor;
        value           nonuniform List<vector> 
25
(
(2.0327846e-06 1.4489792e-05 -4.773108e-06)
(6.5466846e-06 9.7787039e-06 -3.1919362e-06)
(8.2221734e-06 4.9915014e-06 -2.0527331e-06)
(8.3324243e-06 1.7166992e-06 -1.4168413e-06)
(8.2121852e-06 -2.6981401e-08 -7.0419483e-07)
(3.2755461e-06 1.757872e-05 -4.0225962e-06)
(7.7683649e-06 1.1319843e-05 -2.9310113e-06)
(8.9418183e-06 5.9705089e-06 -2.2187828e-06)
(8.8499886e-06 3.1135722e-06 -2.0074528e-06)
(9.3311655e-06 1.543404e-06 -1.5670381e-06)
(3.8249162e-06 1.9402296e-05 -2.2120971e-06)
(8.3504981e-06 1.2156474e-05 -1.9932844e-06)
(9.145732e-06 6.6145369e-06 -1.8137647e-06)
(8.984169e-06 4.5486193e-06 -1.867573e-06)
(1.0128085e-05 3.4448718e-06 -1.6515413e-06)
(3.3294305e-06 1.9387461e-05 -5.523465e-07)
(8.1666974e-06 1.23221e-05 -1.2044081e-06)
(9.0675298e-06 6.8997608e-06 -1.3898193e-06)
(9.012212e-06 5.4442513e-06 -1.2567737e-06)
(1.051306e-05 4.7774014e-06 -9.328151e-07)
(2.168236e-06 1.9017904e-05 2.4488979e-07)
(7.5130253e-06 1.3026043e-05 -7.8662642e-07)
(9.0933665e-06 7.9017688e-06 -1.0471252e-06)
(9.4411732e-06 5.7556241e-06 -5.7591507e-07)
(1.0779075e-05 4.4675898e-06 -7.8192647e-08)
)
;
    }
}


// ************************************************************************* //
