/*--------------------------------*- C++ -*----------------------------------*\
| =========                 |                                                 |
| \\      /  F ield         | OpenFOAM: The Open Source CFD Toolbox           |
|  \\    /   O peration     | Version:  3.0.1                                 |
|   \\  /    A nd           | Web:      www.OpenFOAM.org                      |
|    \\/     M anipulation  |                                                 |
\*---------------------------------------------------------------------------*/
FoamFile
{
    version     2.0;
    format      ascii;
    class       surfaceScalarField;
    location    "0.2";
    object      phi;
}
// * * * * * * * * * * * * * * * * * * * * * * * * * * * * * * * * * * * * * //

dimensions      [0 3 -1 0 0 0 0];

internalField   nonuniform List<scalar> 
300
(
0.0095840305
0.0067919307
-0.0019347711
0.010533689
0.0035888117
1.4338139e-05
0.0095484587
0.00034353794
0.0013579266
0.0075807174
-0.0022978933
0.002054854
-0.0042123571
0.0027809828
0.006416102
0.0046894334
-0.0012207322
0.007302921
0.0025972962
-6.5936868e-05
0.006920442
0.0003561644
0.0008343042
0.0056796545
-0.0016350252
0.0014518062
-0.0032029659
0.0019872877
0.0043415113
0.0031814506
-0.00075111182
0.0050679124
0.0018126917
-7.5940031e-05
0.004931295
0.00026574655
0.00049716897
0.004111781
-0.0011900528
0.00094229477
-0.0023913525
0.0012980734
0.0029825221
0.0021315585
-0.0004356078
0.003524498
0.0012282146
-6.0979616e-05
0.0034761433
0.00017270576
0.00028733372
0.0029104625
-0.00086805446
0.0005719378
-0.0017481122
0.00078988928
0.0020861028
-0.00023733146
0.0024707755
-4.2652671e-05
0.0024359973
0.00015184596
0.002030445
0.0003194302
0.00044207709
0.011524181
0.007519912
-0.0016920306
0.011880049
0.0035137378
0.00069060014
0.010247312
-0.00017614897
0.0023162246
0.0083100293
-0.0028821785
0.0031059426
-0.0049669905
0.0039177568
0.0075688103
0.0051659773
-0.0011734727
0.0082035762
0.0025902943
0.0002118159
0.0075395106
2.0697241e-05
0.0012881756
0.0062159598
-0.0021416846
0.0020395955
-0.0038882099
0.0026772953
0.0050185027
0.0034998086
-0.00077215213
0.0056406068
0.0018291691
3.9025033e-05
0.005376951
5.6832655e-05
0.0007372537
0.0044683012
-0.0015597956
0.0012823159
-0.0029004523
0.0016945571
0.0033596182
0.0023308286
-0.00048072273
0.0038724982
0.0012472513
-8.7967011e-06
0.0037606404
3.7798623e-05
0.00042399619
0.0031271207
-0.0011198701
0.00077677426
-0.0020940235
0.0010332202
0.0022818305
-0.00028060363
0.0026653338
-1.9737837e-05
0.0026037059
0.00023158337
0.0021529719
0.00044690902
0.00059493885
0.013894056
0.0080425158
-0.0010089645
0.013504047
0.0030343994
0.0013420289
0.011033733
-0.0012067096
0.0030760214
0.0091229575
-0.0039408198
0.0039924299
-0.0061832014
0.0049466704
0.0089484911
0.0055696014
-0.00092167647
0.0092792949
0.0024175006
0.0004701426
0.0082902454
-0.00052986151
0.0016022259
0.0068515464
-0.0028970359
0.0024398215
-0.0048639629
0.0031722716
0.0058273943
0.0037926687
-0.00067207183
0.0063385621
0.0017818247
0.0001588033
0.0059220571
-0.00025600488
0.00088197201
0.0048800544
-0.0020646774
0.0014629773
-0.0035593909
0.0019353331
0.003830574
0.0025319237
-0.00044241128
0.0043051607
0.001236894
4.9631205e-05
0.0041135329
-0.00015424576
0.00049473957
0.00338382
-0.0014493839
0.00086810177
-0.0025318048
0.0011519732
0.0025414153
-0.00027382818
0.0029166655
7.1373766e-06
0.0028190794
0.00027511881
0.0023012402
0.00050726041
0.00066938801
0.016223758
0.008107618
-0.00098145603
0.015230171
0.0021560038
0.00099028464
0.011949089
-0.0026876832
0.0024842887
0.010072132
-0.0054931423
0.0040129582
-0.0079354812
0.0056344362
0.010333984
0.0058161605
-0.00078512128
0.010410312
0.0021053395
0.0004013385
0.0091273595
-0.0012505353
0.0014188316
0.007582432
-0.003873653
0.0023647287
-0.0060958046
0.0032590652
0.0066548029
0.0040218506
-0.00055713167
0.0070613465
0.0016725006
0.00015406106
0.006502813
-0.00064326323
0.00078898798
0.0053518855
-0.0026592653
0.0013693948
-0.0043415061
0.0018719753
0.0043201206
0.0027003617
-0.00036749958
0.0047501944
0.0011945196
4.7803433e-05
0.0044867576
-0.00037374175
0.00044200296
0.0036675326
-0.0018100309
0.00079410294
-0.0030138634
0.0010759017
0.0028204574
-0.00023233891
0.0031846048
1.3383995e-05
0.0030510865
0.00025461657
0.0024633984
0.0004656299
0.00061610631
0.018116291
0.0082323287
0.016721747
0.0015670233
0.013476234
-0.0037460083
0.011697805
-0.0071418933
-0.010337606
0.011507002
0.0060328148
0.011426687
0.0018578527
0.010072906
-0.0018805556
0.008476629
-0.0048693609
-0.0074855721
0.0073602118
0.0042104642
0.0076961636
0.0015661964
0.0070828828
-0.00099039108
0.005854316
-0.0032346821
-0.0051381535
0.0047298306
0.0028353009
0.0051443343
0.0011599789
0.0048387842
-0.0005612287
0.0039492717
-0.0021387167
-0.0034739318
0.0030613284
0.0034255122
0.0032619749
0.0026140224
)
;

boundaryField
{
    movingWall
    {
        type            calculated;
        value           nonuniform 0();
    }
    CPLReceiveMD
    {
        type            calculated;
        value           nonuniform 0();
    }
    streamwiseIn
    {
        type            cyclic;
        value           nonuniform 0();
    }
    streamwiseOut
    {
        type            cyclic;
        value           nonuniform 0();
    }
    front
    {
        type            cyclic;
        value           nonuniform 0();
    }
    back
    {
        type            cyclic;
        value           nonuniform 0();
    }
    procBoundary21to3throughback
    {
        type            processorCyclic;
        value           nonuniform List<scalar> 
25
(
-0.0010273866
-0.00064166923
-0.00036107618
-0.00019693426
-0.00010836833
0.00030548409
0.00012438612
6.3980581e-05
4.5166147e-05
4.9095362e-05
0.0014713943
0.00087450258
0.00050952755
0.0002991827
0.00021534913
0.0029379826
0.0016867557
0.00095883092
0.00054791155
0.00035388366
0.0045287304
0.0024869257
0.001359104
0.0007459376
0.00045439138
)
;
    }
    procBoundary21to12
    {
        type            processor;
        value           nonuniform List<scalar> 
25
(
0.0014645072
0.00021208048
-0.00066639185
-0.0011959168
-0.0017112671
0.00092984345
0.00017061713
-0.00041757262
-0.00083987004
-0.0011810644
0.00058191212
0.00011769605
-0.00025600994
-0.00054049413
-0.00075236298
0.00038598171
9.0109811e-05
-0.00014874989
-0.00033908691
-0.00047094395
0.00029962251
0.00010276701
-6.5198003e-05
-0.00020835275
-0.00032293006
)
;
    }
    procBoundary21to18
    {
        type            processor;
        value           nonuniform List<scalar> 
25
(
-0.0097664707
-0.0047619266
-1.7175978e-05
0.0034138518
0.0056438534
-0.010958978
-0.0045172743
0.0008260678
0.0037320717
0.0057950311
-0.011663644
-0.0032987476
0.0029115075
0.0049675879
0.0066666232
-0.010872975
-0.00083760554
0.0064949016
0.0073173112
0.0082783938
-0.010461473
0.00054929504
0.0080671531
0.010009293
0.012453123
)
;
    }
    procBoundary21to22
    {
        type            processor;
        value           nonuniform List<scalar> 
25
(
0.0051896582
0.0039212674
0.0028176054
0.0019373283
0.0012711648
0.0063867933
0.0044518048
0.0030594474
0.0020764046
0.0013841449
0.0076610065
0.0050335118
0.0033410402
0.0022178405
0.0014844799
0.0090182086
0.0056455408
0.0036319022
0.0023547197
0.0015611525
0.010496949
0.0063194324
0.0039369657
0.0024865068
0.0016195341
)
;
    }
    procBoundary21to23throughstreamwiseIn
    {
        type            processorCyclic;
        value           nonuniform List<scalar> 
25
(
-0.0062772527
-0.0040901212
-0.0026842329
-0.0017737266
-0.0011522842
-0.0083433436
-0.005290839
-0.0033667733
-0.0021840376
-0.0014120056
-0.010977136
-0.0067320061
-0.0041625562
-0.0026387793
-0.0016936991
-0.013501973
-0.008183478
-0.004977308
-0.0030984551
-0.0019683387
-0.01594408
-0.0094554355
-0.0056664097
-0.0034633028
-0.0021761043
)
;
    }
    procBoundary21to24
    {
        type            processor;
        value           nonuniform List<scalar> 
25
(
0.0015380095
0.00086454334
9.6736524e-05
-0.00066811396
-0.0013280782
0.0015901862
0.00085199757
1.5589124e-05
-0.00079854738
-0.0014863719
0.0016773664
0.00083895008
-9.5775565e-05
-0.00098602303
-0.0017151131
0.0017712094
0.00082601835
-0.00020949526
-0.0011905084
-0.0019831557
0.0018739205
0.00084124169
-0.00027759044
-0.0013493456
-0.0022310642
)
;
    }
}


// ************************************************************************* //
