/*--------------------------------*- C++ -*----------------------------------*\
| =========                 |                                                 |
| \\      /  F ield         | OpenFOAM: The Open Source CFD Toolbox           |
|  \\    /   O peration     | Version:  3.0.1                                 |
|   \\  /    A nd           | Web:      www.OpenFOAM.org                      |
|    \\/     M anipulation  |                                                 |
\*---------------------------------------------------------------------------*/
FoamFile
{
    version     2.0;
    format      ascii;
    class       volVectorField;
    location    "0.2";
    object      U;
}
// * * * * * * * * * * * * * * * * * * * * * * * * * * * * * * * * * * * * * //

dimensions      [0 1 -1 0 0 0 0];

internalField   nonuniform List<vector> 
125
(
(2.0046014e-05 2.0665112e-05 -4.2781209e-06)
(2.5238114e-05 1.0437512e-05 -2.6666739e-07)
(2.512778e-05 4.960626e-07 2.5127742e-06)
(2.1412724e-05 -6.7895988e-06 4.0464009e-06)
(1.5957458e-05 -1.1918797e-05 5.6056143e-06)
(1.3178672e-05 1.4327431e-05 -2.7010212e-06)
(1.7198135e-05 7.7297791e-06 -3.0463608e-07)
(1.7793187e-05 8.8073224e-07 1.5582346e-06)
(1.5752762e-05 -4.8908024e-06 2.8597638e-06)
(1.2001239e-05 -9.2247286e-06 3.9622495e-06)
(8.8062856e-06 9.8234131e-06 -1.6740633e-06)
(1.1791416e-05 5.5088603e-06 -2.4651334e-07)
(1.2507199e-05 7.7754686e-07 9.3866754e-07)
(1.1307263e-05 -3.5284845e-06 1.8517308e-06)
(8.6635899e-06 -6.9880585e-06 2.5652182e-06)
(5.959688e-06 6.6328879e-06 -1.0322972e-06)
(8.1522688e-06 3.797737e-06 -1.9186789e-07)
(8.7558423e-06 5.473123e-07 5.433171e-07)
(7.9871568e-06 -2.5726192e-06 1.1378677e-06)
(6.0626085e-06 -5.1737209e-06 1.5842506e-06)
(4.0555181e-06 4.5818338e-06 -6.7302638e-07)
(5.7058399e-06 2.61344e-06 -1.8368205e-07)
(6.1368427e-06 3.3594277e-07 2.6924609e-07)
(5.5862296e-06 -1.9204735e-06 6.5817649e-07)
(4.129874e-06 -3.8457744e-06 9.5694648e-07)
(2.536193e-05 2.3043803e-05 -4.5531339e-06)
(2.936136e-05 1.0039782e-05 8.6885838e-07)
(2.7681354e-05 -1.1900284e-06 4.5825705e-06)
(2.3190698e-05 -8.2224369e-06 6.4345286e-06)
(1.8364457e-05 -1.3460621e-05 8.3499377e-06)
(1.6142823e-05 1.5821632e-05 -2.9996978e-06)
(1.9768399e-05 7.6267451e-06 1.7654661e-07)
(1.9692238e-05 -1.8844993e-07 2.6482463e-06)
(1.7195386e-05 -6.2743961e-06 4.3583522e-06)
(1.3334804e-05 -1.1070056e-05 5.822733e-06)
(1.050437e-05 1.0809365e-05 -1.9064261e-06)
(1.3351277e-05 5.519239e-06 -4.8698676e-08)
(1.3780212e-05 9.67041e-08 1.5405895e-06)
(1.2309092e-05 -4.6262564e-06 2.7782969e-06)
(9.411532e-06 -8.4858812e-06 3.7379693e-06)
(6.9418226e-06 7.2754739e-06 -1.1464638e-06)
(9.055738e-06 3.8406623e-06 -8.8381944e-08)
(9.5467424e-06 1.1713598e-07 8.8811611e-07)
(8.6128011e-06 -3.3498932e-06 1.6846156e-06)
(6.5072107e-06 -6.2432215e-06 2.2753909e-06)
(4.6241106e-06 4.8940969e-06 -6.4850553e-07)
(6.1929394e-06 2.6202504e-06 -7.865677e-08)
(6.5896567e-06 6.5188281e-08 4.7883298e-07)
(5.9487347e-06 -2.3985541e-06 9.5755759e-07)
(4.4243345e-06 -4.4756046e-06 1.2957083e-06)
(3.1736121e-05 2.4570083e-05 -3.3568517e-06)
(3.4373819e-05 7.9279248e-06 2.5474994e-06)
(3.0693451e-05 -5.0245576e-06 6.7414009e-06)
(2.5180091e-05 -1.1133161e-05 8.8647112e-06)
(2.0967031e-05 -1.621382e-05 1.1056719e-05)
(1.9689448e-05 1.6974139e-05 -2.6191282e-06)
(2.2846079e-05 6.812222e-06 8.5180043e-07)
(2.1974993e-05 -2.1612488e-06 3.6118012e-06)
(1.8927249e-05 -8.5470341e-06 5.5956798e-06)
(1.4856904e-05 -1.3836697e-05 7.3036612e-06)
(1.2514533e-05 1.1676647e-05 -1.8064908e-06)
(1.5238431e-05 5.2439317e-06 2.4634953e-07)
(1.5334195e-05 -9.8258338e-07 2.023033e-06)
(1.3504643e-05 -6.2022212e-06 3.4300892e-06)
(1.0278453e-05 -1.0535401e-05 4.5343982e-06)
(8.1003496e-06 7.8908085e-06 -1.1546319e-06)
(1.0186849e-05 3.7677789e-06 5.0370981e-08)
(1.052884e-05 -5.1444423e-07 1.1477641e-06)
(9.3744317e-06 -4.3933585e-06 2.0552763e-06)
(7.0050352e-06 -7.6159819e-06 2.7306927e-06)
(5.3024374e-06 5.2530432e-06 -6.934883e-07)
(6.8331784e-06 2.5901437e-06 -1.6222337e-08)
(7.173057e-06 -3.1465448e-07 6.3281841e-07)
(6.4031049e-06 -3.0451562e-06 1.1922262e-06)
(4.7353056e-06 -5.3091601e-06 1.5799215e-06)
(3.780621e-05 2.3690201e-05 -2.3641229e-06)
(3.9459613e-05 3.779872e-06 2.9243968e-06)
(3.3998566e-05 -1.1196978e-05 6.9530143e-06)
(2.7506016e-05 -1.6012619e-05 1.0007224e-05)
(2.3847679e-05 -2.0566968e-05 1.3230002e-05)
(2.323217e-05 1.7371993e-05 -2.1185043e-06)
(2.5999328e-05 5.3255952e-06 1.0905343e-06)
(2.4436117e-05 -4.906818e-06 3.7766272e-06)
(2.0887247e-05 -1.1709018e-05 6.0053658e-06)
(1.6535961e-05 -1.7592376e-05 8.037241e-06)
(1.4570902e-05 1.2273861e-05 -1.5363312e-06)
(1.7180801e-05 4.7178095e-06 3.9111004e-07)
(1.6963952e-05 -2.367333e-06 2.0884339e-06)
(1.4820457e-05 -8.1666599e-06 3.5397478e-06)
(1.1232012e-05 -1.305885e-05 4.7581119e-06)
(9.2899937e-06 8.3884764e-06 -1.012743e-06)
(1.1358134e-05 3.5780905e-06 1.2143747e-07)
(1.1551648e-05 -1.2730786e-06 1.1701506e-06)
(1.019573e-05 -5.5877562e-06 2.0769733e-06)
(7.5309114e-06 -9.1976982e-06 2.7843084e-06)
(5.9969826e-06 5.5805935e-06 -6.3275032e-07)
(7.5192461e-06 2.5206428e-06 2.515057e-08)
(7.7981052e-06 -7.3139537e-07 6.6131732e-07)
(6.8958378e-06 -3.751719e-06 1.2152171e-06)
(5.0340298e-06 -6.2472396e-06 1.6062133e-06)
(4.2953316e-05 2.3340358e-05 -2.4107116e-06)
(4.3690957e-05 1.2872297e-06 1.6168294e-06)
(3.7776279e-05 -1.4669937e-05 4.9429843e-06)
(3.1457079e-05 -2.1435999e-05 8.6940449e-06)
(2.7736915e-05 -2.8602376e-05 1.2734079e-05)
(2.6278688e-05 1.780193e-05 -1.7689072e-06)
(2.8741211e-05 4.2789352e-06 6.5695629e-07)
(2.6889825e-05 -7.0258292e-06 2.8664587e-06)
(2.3187863e-05 -1.5014511e-05 5.0649408e-06)
(1.8496528e-05 -2.2308587e-05 7.1842645e-06)
(1.6319868e-05 1.2782408e-05 -1.1445621e-06)
(1.8863196e-05 4.2748349e-06 2.7568215e-07)
(1.8482832e-05 -3.58906e-06 1.623053e-06)
(1.6174321e-05 -1.0130614e-05 2.9101146e-06)
(1.2241655e-05 -1.5788333e-05 4.0387535e-06)
(1.0265052e-05 8.7943893e-06 -7.0380401e-07)
(1.2369742e-05 3.4018194e-06 1.1773852e-07)
(1.2484376e-05 -1.9415609e-06 9.2618863e-07)
(1.0988589e-05 -6.7178892e-06 1.6771585e-06)
(8.0478364e-06 -1.076788e-05 2.2764986e-06)
(6.5633706e-06 5.8781139e-06 -4.2586643e-07)
(8.1272461e-06 2.4964941e-06 7.8143807e-08)
(8.3631236e-06 -1.0508127e-06 5.8941279e-07)
(7.3480009e-06 -4.3610877e-06 1.0249134e-06)
(5.2952522e-06 -7.1321436e-06 1.3378266e-06)
)
;

boundaryField
{
    movingWall
    {
        type            fixedValue;
        value           nonuniform 0();
    }
    CPLReceiveMD
    {
        type            fixedValue;
        value           nonuniform 0();
    }
    streamwiseIn
    {
        type            cyclic;
    }
    streamwiseOut
    {
        type            cyclic;
    }
    front
    {
        type            cyclic;
    }
    back
    {
        type            cyclic;
    }
    procBoundary21to3throughback
    {
        type            processorCyclic;
        value           nonuniform List<vector> 
25
(
(4.6427335e-05 2.418158e-05 -2.2775476e-06)
(2.8281059e-05 1.8638142e-05 -1.2458712e-06)
(1.7519434e-05 1.3338964e-05 -6.7083262e-07)
(1.09914e-05 9.1071721e-06 -3.6113376e-07)
(6.9856612e-06 6.024725e-06 -1.6673697e-07)
(4.6813309e-05 5.3616094e-07 -4.4517053e-07)
(3.0634695e-05 3.9844479e-06 -1.057632e-07)
(1.9948416e-05 4.1785917e-06 -3.7976015e-09)
(1.2988127e-05 3.3805521e-06 1.9903624e-08)
(8.5345253e-06 2.425698e-06 7.9018625e-08)
(4.1075782e-05 -1.645079e-05 1.5226699e-06)
(2.8844102e-05 -8.2267494e-06 1.1367503e-06)
(1.9598384e-05 -4.3076031e-06 7.1633354e-07)
(1.3111068e-05 -2.3067188e-06 4.3820909e-07)
(8.7448748e-06 -1.3357766e-06 3.2424459e-07)
(3.5297111e-05 -2.5578948e-05 4.6925493e-06)
(2.5205052e-05 -1.7492948e-05 2.7119492e-06)
(1.7236158e-05 -1.1554442e-05 1.5357116e-06)
(1.154604e-05 -7.4729574e-06 8.6908909e-07)
(7.6442516e-06 -4.8562262e-06 5.4148529e-07)
(3.173898e-05 -3.5789091e-05 8.2961151e-06)
(2.0343959e-05 -2.6287702e-05 4.3481483e-06)
(1.3082005e-05 -1.7966616e-05 2.3045205e-06)
(8.4424949e-06 -1.1898625e-05 1.2255687e-06)
(5.4013358e-06 -7.8079624e-06 7.2108669e-07)
)
;
    }
    procBoundary21to12
    {
        type            processor;
        value           nonuniform List<vector> 
25
(
(1.645775e-05 1.8928969e-05 -2.6361687e-06)
(2.2570464e-05 1.0303599e-05 -5.0145502e-07)
(2.3368285e-05 1.029821e-06 1.0968048e-06)
(2.0097858e-05 -6.190172e-06 2.2325445e-06)
(1.4201958e-05 -1.1062808e-05 3.0896647e-06)
(1.1244836e-05 1.3217575e-05 -1.6262549e-06)
(1.5509143e-05 7.6065911e-06 -3.6847185e-07)
(1.6527838e-05 1.3856568e-06 6.4211883e-07)
(1.4791371e-05 -4.0797259e-06 1.3899191e-06)
(1.1063603e-05 -8.0296597e-06 1.9505935e-06)
(7.7752565e-06 9.1406409e-06 -9.6716149e-07)
(1.0738546e-05 5.4064708e-06 -2.3878864e-07)
(1.1681968e-05 1.1116216e-06 3.7071645e-07)
(1.0682541e-05 -2.9043603e-06 8.3471554e-07)
(8.1384304e-06 -6.1078823e-06 1.1792866e-06)
(5.4531478e-06 6.274437e-06 -6.0694502e-07)
(7.4801237e-06 3.777831e-06 -1.6313101e-07)
(8.2170068e-06 7.8655743e-07 2.0473009e-07)
(7.5718675e-06 -2.1563389e-06 4.9646416e-07)
(5.7977888e-06 -4.6349497e-06 7.1455102e-07)
(3.9153434e-06 4.1127529e-06 -4.2950413e-07)
(5.2506669e-06 2.4852137e-06 -1.3719093e-07)
(5.7477982e-06 4.5168516e-07 1.0605564e-07)
(5.2610343e-06 -1.6125253e-06 3.0136192e-07)
(4.0457784e-06 -3.3801978e-06 4.4925468e-07)
)
;
    }
    procBoundary21to18
    {
        type            processor;
        value           nonuniform List<vector> 
25
(
(3.0847618e-05 2.9301823e-05 -6.8158545e-06)
(3.7367184e-05 1.3332812e-05 -4.0819891e-08)
(3.5020298e-05 -1.0917052e-06 3.778084e-06)
(2.8167622e-05 -9.9991908e-06 4.8920287e-06)
(2.0056474e-05 -1.5937161e-05 6.3600632e-06)
(4.0538317e-05 3.3028926e-05 -6.9046697e-06)
(4.400223e-05 1.2465968e-05 2.6861339e-06)
(3.7954457e-05 -3.4756738e-06 8.1688664e-06)
(2.9465979e-05 -1.0017268e-05 8.701914e-06)
(2.4342855e-05 -1.4177212e-05 1.0117756e-05)
(5.2362783e-05 3.5124526e-05 -3.2655271e-06)
(5.2440721e-05 7.4931717e-06 7.1117105e-06)
(4.1036078e-05 -1.0622251e-05 1.3618751e-05)
(3.0116511e-05 -1.2698142e-05 1.3385862e-05)
(2.8405018e-05 -1.3902552e-05 1.4410008e-05)
(6.2795528e-05 3.0352844e-05 -8.887794e-07)
(6.0886509e-05 -3.6098683e-06 7.7312288e-06)
(4.4228609e-05 -2.6669465e-05 1.3422006e-05)
(3.0257236e-05 -1.9899871e-05 1.6308205e-05)
(3.2740507e-05 -1.4355683e-05 2.0425798e-05)
(7.1399298e-05 2.7570146e-05 -2.2602864e-06)
(6.6751507e-05 -9.1963636e-06 3.9006669e-06)
(4.9613054e-05 -3.1341406e-05 8.12027e-06)
(3.7120303e-05 -2.8545689e-05 1.4631269e-05)
(4.0424523e-05 -2.8411771e-05 2.2406389e-05)
)
;
    }
    procBoundary21to22
    {
        type            processor;
        value           nonuniform List<vector> 
25
(
(1.0085792e-05 -1.4844834e-05 8.2088992e-06)
(7.234947e-06 -1.2184671e-05 5.1309646e-06)
(4.9717677e-06 -9.4671149e-06 3.1248324e-06)
(3.3090273e-06 -7.1063351e-06 1.8472896e-06)
(2.1269006e-06 -5.093817e-06 1.0367326e-06)
(1.2694688e-05 -1.9230487e-05 1.1444101e-05)
(8.2019742e-06 -1.522732e-05 7.2140176e-06)
(5.3355845e-06 -1.1453849e-05 4.3931604e-06)
(3.4671788e-06 -8.3370907e-06 2.6270422e-06)
(2.2377722e-06 -5.8994347e-06 1.5629891e-06)
(1.5231217e-05 -2.4681273e-05 1.4347934e-05)
(9.1798902e-06 -1.9235611e-05 8.796837e-06)
(5.6857718e-06 -1.405409e-05 5.2505695e-06)
(3.577474e-06 -9.9365064e-06 3.078977e-06)
(2.3097616e-06 -6.8926246e-06 1.8019214e-06)
(1.7815385e-05 -3.2217164e-05 1.6777109e-05)
(1.0136552e-05 -2.4324685e-05 9.6449893e-06)
(6.0111785e-06 -1.7171709e-05 5.5029493e-06)
(3.66562e-06 -1.1785739e-05 3.1197745e-06)
(2.3335993e-06 -7.9742427e-06 1.7751638e-06)
(2.0664692e-05 -4.3363994e-05 1.6585345e-05)
(1.1159949e-05 -3.050977e-05 8.8729382e-06)
(6.3542792e-06 -2.0579305e-05 4.7601068e-06)
(3.7573899e-06 -1.3664292e-05 2.5887419e-06)
(2.3393211e-06 -9.0089409e-06 1.3922194e-06)
)
;
    }
    procBoundary21to23throughstreamwiseIn
    {
        type            processorCyclic;
        value           nonuniform List<vector> 
25
(
(8.8716866e-06 2.8106458e-05 -9.170847e-06)
(5.7399865e-06 1.8969507e-05 -5.2026225e-06)
(3.834659e-06 1.2727844e-05 -2.9756266e-06)
(2.5794943e-06 8.5485045e-06 -1.6805427e-06)
(1.7143783e-06 5.5776435e-06 -8.9244919e-07)
(1.374255e-05 3.4435275e-05 -1.0821248e-05)
(8.2721415e-06 2.2484305e-05 -6.3342293e-06)
(5.2101199e-06 1.4720239e-05 -3.7569465e-06)
(3.3741264e-06 9.7209215e-06 -2.2290436e-06)
(2.2019497e-06 6.3379118e-06 -1.3255761e-06)
(1.9773521e-05 4.0601258e-05 -9.8967801e-06)
(1.1462817e-05 2.6033809e-05 -6.2375464e-06)
(6.941406e-06 1.683303e-05 -3.8201822e-06)
(4.3400467e-06 1.0979875e-05 -2.2978001e-06)
(2.7650426e-06 7.1276377e-06 -1.3890944e-06)
(2.5893521e-05 4.3343228e-05 -8.2927978e-06)
(1.4865826e-05 2.8560902e-05 -5.4987057e-06)
(8.8153778e-06 1.8659985e-05 -3.4142249e-06)
(5.3749277e-06 1.2152009e-05 -2.0432646e-06)
(3.3433299e-06 7.8612006e-06 -1.2357825e-06)
(3.174012e-05 4.6407836e-05 -7.0042951e-06)
(1.8033159e-05 3.0912381e-05 -4.3919331e-06)
(1.0513871e-05 2.0288471e-05 -2.6728497e-06)
(6.2846954e-06 1.3158317e-05 -1.5836682e-06)
(3.8258419e-06 8.4469313e-06 -9.1053475e-07)
)
;
    }
    procBoundary21to24
    {
        type            processor;
        value           nonuniform List<vector> 
25
(
(2.9954845e-06 3.0286988e-06 -2.5095322e-07)
(3.9063778e-06 1.6955929e-06 -5.68312e-08)
(4.2219287e-06 1.2927025e-07 1.5682021e-07)
(3.8054396e-06 -1.4408472e-06 3.5183884e-07)
(2.8892649e-06 -2.7919002e-06 4.888438e-07)
(3.2241612e-06 3.1972108e-06 -4.7525442e-07)
(4.2268294e-06 1.7000368e-06 -1.116783e-07)
(4.5279378e-06 -2.5207921e-08 2.3751885e-07)
(4.0720082e-06 -1.715986e-06 5.5993287e-07)
(3.0063301e-06 -3.145899e-06 8.1200526e-07)
(3.5628555e-06 3.4066462e-06 -4.6813528e-07)
(4.619151e-06 1.6949385e-06 -4.9236666e-08)
(4.8935399e-06 -2.3203652e-07 3.5118049e-07)
(4.379926e-06 -2.0886323e-06 7.0211144e-07)
(3.1575667e-06 -3.6210519e-06 9.5905773e-07)
(3.9494358e-06 3.6139714e-06 -3.8767228e-07)
(5.0461451e-06 1.6824279e-06 2.7787868e-08)
(5.2792859e-06 -4.5196343e-07 4.3399235e-07)
(4.6798854e-06 -2.491667e-06 7.610418e-07)
(3.3083877e-06 -4.1503715e-06 9.613248e-07)
(4.3146144e-06 3.8004376e-06 -2.5967255e-07)
(5.4408157e-06 1.6949798e-06 2.2793787e-08)
(5.6267938e-06 -6.1709353e-07 3.2180739e-07)
(4.9072585e-06 -2.829173e-06 5.7265127e-07)
(3.3999831e-06 -4.6268207e-06 7.1577586e-07)
)
;
    }
}


// ************************************************************************* //
