/*--------------------------------*- C++ -*----------------------------------*\
| =========                 |                                                 |
| \\      /  F ield         | OpenFOAM: The Open Source CFD Toolbox           |
|  \\    /   O peration     | Version:  3.0.1                                 |
|   \\  /    A nd           | Web:      www.OpenFOAM.org                      |
|    \\/     M anipulation  |                                                 |
\*---------------------------------------------------------------------------*/
FoamFile
{
    version     2.0;
    format      ascii;
    class       volScalarField;
    location    "0.1";
    object      p;
}
// * * * * * * * * * * * * * * * * * * * * * * * * * * * * * * * * * * * * * //

dimensions      [0 2 -2 0 0 0 0];

internalField   nonuniform List<scalar> 
125
(
-0.058497994
-0.055467425
-0.051600935
-0.04819576
-0.046296796
-0.056311303
-0.05447819
-0.05217195
-0.050072295
-0.048744403
-0.054992555
-0.053852226
-0.052437251
-0.05111631
-0.050212452
-0.054176958
-0.053451345
-0.052561728
-0.051717648
-0.05110982
-0.05366216
-0.053193974
-0.052624692
-0.052077138
-0.05166538
-0.059477923
-0.055856169
-0.051174736
-0.047161368
-0.045133584
-0.056768288
-0.05464691
-0.051978216
-0.049599857
-0.048173229
-0.055213393
-0.05392631
-0.052343698
-0.050887023
-0.049912106
-0.054286521
-0.053487741
-0.052516117
-0.051598993
-0.050941779
-0.053718312
-0.0532121
-0.052596877
-0.052008113
-0.051568323
-0.06030372
-0.056376834
-0.051117095
-0.046601147
-0.044407599
-0.057160408
-0.054870432
-0.051948587
-0.049341313
-0.047797026
-0.055409267
-0.054033494
-0.052327795
-0.050754058
-0.049704753
-0.054388238
-0.053541333
-0.052503846
-0.051522862
-0.050820243
-0.053769882
-0.05323487
-0.05258425
-0.051960419
-0.051493378
-0.060640603
-0.056734746
-0.051393943
-0.046707727
-0.044314317
-0.057375512
-0.055066197
-0.052069002
-0.04934664
-0.047690109
-0.05553557
-0.054139261
-0.052379267
-0.05073494
-0.049620843
-0.054458619
-0.05359462
-0.052522663
-0.051500322
-0.05076049
-0.053807051
-0.053259534
-0.052588475
-0.051940664
-0.051451966
-0.060615556
-0.056981374
-0.051875382
-0.047203655
-0.044587777
-0.057425932
-0.055216914
-0.052282598
-0.049535896
-0.047778217
-0.055583177
-0.054223316
-0.052474948
-0.050806398
-0.049643756
-0.054490309
-0.053638286
-0.052564652
-0.051526219
-0.050762934
-0.053824678
-0.053280704
-0.052606162
-0.051949015
-0.051447279
)
;

boundaryField
{
    movingWall
    {
        type            zeroGradient;
    }
    CPLReceiveMD
    {
        type            zeroGradient;
    }
    streamwiseIn
    {
        type            cyclic;
    }
    streamwiseOut
    {
        type            cyclic;
    }
    front
    {
        type            cyclic;
    }
    back
    {
        type            cyclic;
    }
    procBoundary23to5throughback
    {
        type            processorCyclic;
        value           nonuniform List<scalar> 
25
(
-0.060442079
-0.057375744
-0.055572352
-0.054488572
-0.053827554
-0.057198155
-0.055332954
-0.054284312
-0.05366983
-0.053298453
-0.052405379
-0.052526093
-0.052591043
-0.052622796
-0.05263684
-0.047784342
-0.049806001
-0.050936171
-0.051592326
-0.051984723
-0.044966667
-0.047966497
-0.049736858
-0.050811417
-0.051476561
)
;
    }
    procBoundary23to14
    {
        type            processor;
        value           nonuniform List<scalar> 
25
(
-0.057693406
-0.05533214
-0.052218547
-0.049332497
-0.04750572
-0.055932668
-0.054410284
-0.052453871
-0.050604323
-0.049338203
-0.054810277
-0.053822008
-0.052574315
-0.051374304
-0.050505295
-0.054085487
-0.053438216
-0.052632963
-0.051851988
-0.051262966
-0.05361634
-0.053188981
-0.052666732
-0.052158099
-0.051761838
)
;
    }
    procBoundary23to20
    {
        type            processor;
        value           nonuniform List<scalar> 
25
(
-0.062205696
-0.057034624
-0.05037559
-0.044723225
-0.042117572
-0.064456048
-0.057979374
-0.049330159
-0.042242779
-0.039606826
-0.066319828
-0.059369905
-0.049206099
-0.040864891
-0.038084021
-0.066717172
-0.059963955
-0.049876469
-0.041409225
-0.038222293
-0.066268284
-0.060241955
-0.050983453
-0.042752774
-0.039052126
)
;
    }
    procBoundary23to21throughstreamwiseOut
    {
        type            processorCyclic;
        value           nonuniform List<scalar> 
25
(
-0.046084436
-0.048362585
-0.049840786
-0.050810799
-0.05145108
-0.045130135
-0.047848035
-0.049558325
-0.050646749
-0.051348056
-0.04447573
-0.04746464
-0.049332416
-0.050511218
-0.051262198
-0.044244879
-0.047280606
-0.049205151
-0.050427909
-0.051207955
-0.044253832
-0.047251267
-0.049168929
-0.050399035
-0.051188521
)
;
    }
    procBoundary23to22
    {
        type            processor;
        value           nonuniform List<scalar> 
25
(
-0.059801462
-0.057200073
-0.055594798
-0.054581847
-0.05393686
-0.061044601
-0.057793559
-0.055890042
-0.054734383
-0.054016813
-0.061893194
-0.058240532
-0.056127391
-0.054861015
-0.054084279
-0.062131125
-0.058432643
-0.056251134
-0.054933648
-0.054126164
-0.061913549
-0.058398555
-0.056262028
-0.054949187
-0.054137626
)
;
    }
    procBoundary23to26
    {
        type            processor;
        value           nonuniform List<scalar> 
25
(
-0.053338175
-0.053030447
-0.052661965
-0.052303284
-0.052020933
-0.053367803
-0.053037422
-0.052639863
-0.052256042
-0.051957828
-0.053395352
-0.053046618
-0.052627777
-0.052222954
-0.051908076
-0.053415397
-0.053057897
-0.052626014
-0.052206228
-0.051878622
-0.053424809
-0.053066876
-0.05263198
-0.052206582
-0.051871078
)
;
    }
}


// ************************************************************************* //
