/*--------------------------------*- C++ -*----------------------------------*\
| =========                 |                                                 |
| \\      /  F ield         | OpenFOAM: The Open Source CFD Toolbox           |
|  \\    /   O peration     | Version:  3.0.1                                 |
|   \\  /    A nd           | Web:      www.OpenFOAM.org                      |
|    \\/     M anipulation  |                                                 |
\*---------------------------------------------------------------------------*/
FoamFile
{
    version     2.0;
    format      ascii;
    class       volVectorField;
    location    "0.1";
    object      U;
}
// * * * * * * * * * * * * * * * * * * * * * * * * * * * * * * * * * * * * * //

dimensions      [0 1 -1 0 0 0 0];

internalField   nonuniform List<vector> 
125
(
(-1.082977e-05 -1.4736069e-05 4.4627299e-06)
(-1.7235404e-05 -6.3914521e-06 1.3113128e-06)
(-1.8170828e-05 4.4905681e-06 -2.6088127e-06)
(-1.3251748e-05 1.3372577e-05 -5.4277734e-06)
(-5.2709763e-06 1.6567047e-05 -5.9312576e-06)
(-6.799887e-06 -8.7613239e-06 2.0897203e-06)
(-1.0341653e-05 -4.0364513e-06 5.9204347e-07)
(-1.1006978e-05 2.0915271e-06 -1.1889108e-06)
(-8.560949e-06 7.3010217e-06 -2.5112682e-06)
(-4.2679363e-06 9.7875655e-06 -2.912908e-06)
(-4.3523528e-06 -5.332771e-06 1.0078969e-06)
(-6.3825527e-06 -2.5650158e-06 2.6074573e-07)
(-6.8333548e-06 9.7528715e-07 -5.7663546e-07)
(-5.5557095e-06 4.1126529e-06 -1.2183433e-06)
(-3.1839115e-06 5.9111e-06 -1.4831356e-06)
(-2.8230271e-06 -3.3230808e-06 5.0246736e-07)
(-4.0335948e-06 -1.6437891e-06 1.2366641e-07)
(-4.3293088e-06 4.6912029e-07 -2.9223458e-07)
(-3.6251362e-06 2.401079e-06 -6.3251313e-07)
(-2.2636114e-06 3.6298532e-06 -8.0288088e-07)
(-1.8547869e-06 -2.0946549e-06 2.5477604e-07)
(-2.5903516e-06 -1.0508916e-06 5.767244e-08)
(-2.7884866e-06 2.5078125e-07 -1.746633e-07)
(-2.3949765e-06 1.4630516e-06 -3.7485098e-07)
(-1.5627339e-06 2.275655e-06 -4.8354331e-07)
(-1.2965875e-05 -1.9220043e-05 4.5157893e-06)
(-2.0751126e-05 -8.3320004e-06 2.2747823e-06)
(-2.1729373e-05 6.6195211e-06 -1.208643e-06)
(-1.5095167e-05 1.8392424e-05 -3.9861018e-06)
(-5.0717649e-06 2.1416103e-05 -4.723143e-06)
(-7.8619689e-06 -1.0659861e-05 2.1234935e-06)
(-1.196868e-05 -4.8238501e-06 9.8127741e-07)
(-1.2610262e-05 2.9226208e-06 -5.5786408e-07)
(-9.5050606e-06 9.3136184e-06 -1.8271641e-06)
(-4.3737215e-06 1.1945004e-05 -2.3684505e-06)
(-4.9053941e-06 -6.2018443e-06 1.0419897e-06)
(-7.1686446e-06 -2.8962822e-06 4.5336384e-07)
(-7.5919041e-06 1.3452781e-06 -2.7345369e-07)
(-6.072783e-06 4.9970772e-06 -9.0545075e-07)
(-3.3169732e-06 6.9192346e-06 -1.2690565e-06)
(-3.1134434e-06 -3.7350122e-06 5.2816594e-07)
(-4.4215575e-06 -1.7838376e-06 2.2495781e-07)
(-4.716903e-06 6.3341266e-07 -1.4465372e-07)
(-3.9311042e-06 2.8018054e-06 -4.8680574e-07)
(-2.3770498e-06 4.1382444e-06 -7.2365003e-07)
(-2.0093531e-06 -2.2945518e-06 2.6919749e-07)
(-2.8002198e-06 -1.1244489e-06 1.0219139e-07)
(-3.0062612e-06 3.0960884e-07 -1.0105612e-07)
(-2.5679513e-06 1.6416656e-06 -2.9162581e-07)
(-1.64763e-06 2.5380576e-06 -4.2970244e-07)
(-1.3785805e-05 -2.2899737e-05 2.9070015e-06)
(-2.2959836e-05 -1.1249779e-05 2.1966559e-06)
(-2.4431712e-05 6.855511e-06 5.4840736e-07)
(-1.6766248e-05 2.1190798e-05 -1.1334431e-06)
(-5.3074708e-06 2.428277e-05 -2.0471688e-06)
(-8.4205761e-06 -1.2235123e-05 1.5180778e-06)
(-1.3023011e-05 -5.8578698e-06 1.0484046e-06)
(-1.3815419e-05 3.0267163e-06 2.27381e-07)
(-1.0371535e-05 1.0381673e-05 -6.3235816e-07)
(-4.6859031e-06 1.3241652e-05 -1.2068809e-06)
(-5.2307578e-06 -6.9280986e-06 8.0535587e-07)
(-7.6979961e-06 -3.3213354e-06 5.3248905e-07)
(-8.1921694e-06 1.3884975e-06 8.9263374e-08)
(-6.5513123e-06 5.4530113e-06 -3.7964182e-07)
(-3.5492885e-06 7.5559005e-06 -7.274053e-07)
(-3.2959851e-06 -4.095873e-06 4.3012212e-07)
(-4.7064145e-06 -1.9949616e-06 2.6724179e-07)
(-5.0410724e-06 6.4151786e-07 1.6602611e-08)
(-4.2041325e-06 3.014904e-06 -2.4626438e-07)
(-2.525471e-06 4.4692073e-06 -4.5267159e-07)
(-2.1210228e-06 -2.4799915e-06 2.2173469e-07)
(-2.9606053e-06 -1.2354585e-06 1.1860098e-07)
(-3.1823038e-06 3.1003625e-07 -2.0853888e-08)
(-2.7236228e-06 1.7492186e-06 -1.6834421e-07)
(-1.7429506e-06 2.7174507e-06 -2.905049e-07)
(-1.3485939e-05 -2.3355675e-05 7.7874362e-07)
(-2.310972e-05 -1.2245411e-05 1.5106528e-06)
(-2.5059472e-05 5.4808409e-06 1.8955452e-06)
(-1.7690743e-05 1.9843512e-05 1.5070212e-06)
(-6.150419e-06 2.3669912e-05 4.5227217e-07)
(-8.4112359e-06 -1.2761506e-05 6.6323951e-07)
(-1.3259377e-05 -6.488017e-06 8.6592832e-07)
(-1.4291025e-05 2.4634768e-06 8.3524409e-07)
(-1.0939323e-05 1.006742e-05 4.8733498e-07)
(-5.1588757e-06 1.3264768e-05 -4.5469809e-08)
(-5.2754481e-06 -7.2897999e-06 4.3445303e-07)
(-7.8847371e-06 -3.677445e-06 4.7456663e-07)
(-8.504035e-06 1.1344997e-06 3.6827521e-07)
(-6.8894516e-06 5.3831709e-06 1.3161325e-07)
(-3.8194291e-06 7.6734439e-06 -1.5140265e-07)
(-3.344161e-06 -4.3186334e-06 2.5499882e-07)
(-4.835077e-06 -2.1977256e-06 2.4245335e-07)
(-5.2304091e-06 5.232954e-07 1.5233668e-07)
(-4.4003783e-06 3.013103e-06 8.9185709e-09)
(-2.6772794e-06 4.5751447e-06 -1.4259665e-07)
(-2.1639505e-06 -2.6057905e-06 1.3688443e-07)
(-3.0428084e-06 -1.3405115e-06 1.1463179e-07)
(-3.2932064e-06 2.5848087e-07 5.4976876e-08)
(-2.8376023e-06 1.7635928e-06 -2.8196701e-08)
(-1.8291027e-06 2.792994e-06 -1.1485647e-07)
(-1.2325563e-05 -2.2107565e-05 -4.9683834e-07)
(-2.1843034e-05 -1.2563413e-05 1.1579421e-06)
(-2.4435344e-05 3.2476075e-06 2.5283922e-06)
(-1.8209521e-05 1.6957875e-05 2.692048e-06)
(-7.3668385e-06 2.1815468e-05 1.6321548e-06)
(-7.9490124e-06 -1.2579414e-05 2.6174461e-10)
(-1.2851006e-05 -6.8939559e-06 6.66713e-07)
(-1.4194012e-05 1.4994463e-06 1.142866e-06)
(-1.1252249e-05 9.0062649e-06 1.1489514e-06)
(-5.7047435e-06 1.2637977e-05 6.919693e-07)
(-5.0922501e-06 -7.3363393e-06 9.1852906e-08)
(-7.7641739e-06 -3.9448104e-06 3.6271851e-07)
(-8.5351228e-06 7.0559009e-07 5.2974563e-07)
(-7.0709901e-06 4.9745948e-06 5.0358465e-07)
(-4.088339e-06 7.4587737e-06 2.9073251e-07)
(-3.2736231e-06 -4.3934416e-06 7.4862274e-08)
(-4.8090766e-06 -2.3548964e-06 1.8815378e-07)
(-5.2746072e-06 3.2821952e-07 2.5058488e-07)
(-4.4990658e-06 2.855094e-06 2.3034918e-07)
(-2.8140787e-06 4.5057535e-06 1.2773322e-07)
(-2.1395497e-06 -2.6614234e-06 5.1242369e-08)
(-3.0425128e-06 -1.4272503e-06 9.7375995e-08)
(-3.3251323e-06 1.6831521e-07 1.21058e-07)
(-2.8934562e-06 1.699552e-06 1.1033021e-07)
(-1.8985132e-06 2.7677868e-06 6.1692358e-08)
)
;

boundaryField
{
    movingWall
    {
        type            fixedValue;
        value           nonuniform 0();
    }
    CPLReceiveMD
    {
        type            fixedValue;
        value           nonuniform 0();
    }
    streamwiseIn
    {
        type            cyclic;
    }
    streamwiseOut
    {
        type            cyclic;
    }
    front
    {
        type            cyclic;
    }
    back
    {
        type            cyclic;
    }
    procBoundary23to5throughback
    {
        type            processorCyclic;
        value           nonuniform List<vector> 
25
(
(-1.0743548e-05 -2.1004391e-05 -1.0407284e-06)
(-7.2158996e-06 -1.2172815e-05 -4.3814211e-07)
(-4.7496467e-06 -7.2151994e-06 -1.8424993e-07)
(-3.1148058e-06 -4.3592439e-06 -8.1197557e-08)
(-2.0520014e-06 -2.663051e-06 -2.6659837e-08)
(-2.008449e-05 -1.3359863e-05 9.4728354e-07)
(-1.2116772e-05 -7.2832406e-06 4.618824e-07)
(-7.4468444e-06 -4.1560042e-06 2.288501e-07)
(-4.6593544e-06 -2.4630681e-06 1.1978237e-07)
(-2.9729927e-06 -1.4826626e-06 7.8177218e-08)
(-2.3525366e-05 8.9295694e-07 2.5256381e-06)
(-1.3808787e-05 4.6483015e-07 1.1833357e-06)
(-8.3631689e-06 2.4221854e-07 5.778452e-07)
(-5.1882138e-06 1.1460777e-07 3.0010945e-07)
(-3.2802522e-06 6.183027e-08 1.7012978e-07)
(-1.858698e-05 1.4528874e-05 2.8052227e-06)
(-1.1390219e-05 7.8789562e-06 1.3970075e-06)
(-7.1284647e-06 4.4645687e-06 7.2373092e-07)
(-4.52323e-06 2.6198486e-06 3.9059498e-07)
(-2.8969679e-06 1.5752264e-06 2.1797526e-07)
(-8.5975772e-06 2.047791e-05 1.9133677e-06)
(-6.1892104e-06 1.1923346e-05 1.099414e-06)
(-4.2735186e-06 7.1092078e-06 6.3022644e-07)
(-2.8953013e-06 4.3461046e-06 3.5614486e-07)
(-1.9489332e-06 2.6792369e-06 2.1113346e-07)
)
;
    }
    procBoundary23to14
    {
        type            processor;
        value           nonuniform List<vector> 
25
(
(-8.2897253e-06 -1.1396883e-05 3.053226e-06)
(-1.3679583e-05 -5.8678298e-06 1.1349279e-07)
(-1.4990286e-05 1.7288759e-06 -3.0365156e-06)
(-1.1772722e-05 8.4133815e-06 -5.0879388e-06)
(-5.7264303e-06 1.1803445e-05 -5.2709551e-06)
(-5.5664339e-06 -7.2050276e-06 1.4630603e-06)
(-8.6900488e-06 -3.773283e-06 6.2698289e-08)
(-9.5069506e-06 8.9044349e-07 -1.4267312e-06)
(-7.7810635e-06 5.1041882e-06 -2.4405863e-06)
(-4.2889493e-06 7.4968823e-06 -2.6564655e-06)
(-3.7270847e-06 -4.6145913e-06 7.1528685e-07)
(-5.5841123e-06 -2.4279051e-06 2.4216586e-08)
(-6.1128152e-06 4.4860186e-07 -7.0425609e-07)
(-5.1662828e-06 3.1183221e-06 -1.2166838e-06)
(-3.080261e-06 4.8092075e-06 -1.3597249e-06)
(-2.5017174e-06 -2.9818913e-06 3.5733265e-07)
(-3.6268556e-06 -1.5807643e-06 6.7289115e-10)
(-3.9607234e-06 2.314405e-07 -3.6893613e-07)
(-3.4204579e-06 1.9583131e-06 -6.3786917e-07)
(-2.1607788e-06 3.1386521e-06 -7.290311e-07)
(-1.6765142e-06 -1.9333245e-06 1.8013032e-07)
(-2.3707805e-06 -1.0237288e-06 -7.0975386e-09)
(-2.5737378e-06 1.2666347e-07 -2.0551391e-07)
(-2.2590712e-06 1.2320506e-06 -3.6342699e-07)
(-1.5163924e-06 2.0348142e-06 -4.3878017e-07)
)
;
    }
    procBoundary23to20
    {
        type            processor;
        value           nonuniform List<vector> 
25
(
(-1.776393e-05 -2.5393145e-05 9.91288e-06)
(-2.956829e-05 -1.0101702e-05 3.0562142e-06)
(-3.0771007e-05 9.490975e-06 -6.0795559e-06)
(-2.0637428e-05 2.5099607e-05 -1.2490311e-05)
(-5.3851509e-06 2.855567e-05 -1.2525566e-05)
(-2.2040809e-05 -3.6310643e-05 1.0287161e-05)
(-3.7808244e-05 -1.4914247e-05 5.8396041e-06)
(-3.9334687e-05 1.5429858e-05 -2.922807e-06)
(-2.4301643e-05 3.8473686e-05 -9.6453854e-06)
(-3.5600177e-06 3.9680422e-05 -1.0084174e-05)
(-2.2600715e-05 -4.5881598e-05 5.65371e-06)
(-4.2778259e-05 -2.4975094e-05 4.9618147e-06)
(-4.6255996e-05 1.6117786e-05 1.3660611e-06)
(-2.7798795e-05 4.7384676e-05 -2.0834457e-06)
(-2.8974007e-06 4.6687086e-05 -3.4606901e-06)
(-2.1399328e-05 -4.4786806e-05 -1.289329e-07)
(-4.2095893e-05 -2.5176293e-05 2.1795622e-06)
(-4.6379947e-05 1.2754154e-05 4.4431477e-06)
(-2.9128394e-05 4.1688555e-05 4.7202583e-06)
(-4.7028248e-06 4.3344183e-05 2.4218326e-06)
(-1.8768056e-05 -3.9728195e-05 -2.3510227e-06)
(-3.8206178e-05 -2.4020696e-05 1.7811656e-06)
(-4.37153e-05 7.2074592e-06 5.73075e-06)
(-2.982011e-05 3.3334058e-05 6.4635894e-06)
(-7.764772e-06 3.8144155e-05 3.8839715e-06)
)
;
    }
    procBoundary23to21throughstreamwiseOut
    {
        type            processorCyclic;
        value           nonuniform List<vector> 
25
(
(2.0327846e-06 1.4489792e-05 -4.773108e-06)
(1.2557833e-07 9.3880866e-06 -2.5960404e-06)
(-5.0389731e-07 6.1169778e-06 -1.4550555e-06)
(-6.0426524e-07 4.0222567e-06 -8.4878408e-07)
(-5.149305e-07 2.6321303e-06 -5.0608864e-07)
(3.2755461e-06 1.757872e-05 -4.0225962e-06)
(5.4146038e-07 1.106841e-05 -2.2451309e-06)
(-3.5238567e-07 6.9937489e-06 -1.2708277e-06)
(-5.4546729e-07 4.4711486e-06 -7.4866528e-07)
(-5.0149925e-07 2.8755456e-06 -4.7184253e-07)
(3.8249162e-06 1.9402296e-05 -2.2120971e-06)
(6.5045373e-07 1.2139855e-05 -1.4175123e-06)
(-3.5433255e-07 7.6134433e-06 -8.8209764e-07)
(-5.6374278e-07 4.8212418e-06 -5.4649397e-07)
(-5.2205179e-07 3.0706574e-06 -3.4981688e-07)
(3.3294305e-06 1.9387461e-05 -5.523465e-07)
(3.8507183e-07 1.239841e-05 -5.3150548e-07)
(-4.9723364e-07 7.8647672e-06 -4.0743727e-07)
(-6.4201123e-07 5.0034294e-06 -2.7968916e-07)
(-5.6959674e-07 3.1797608e-06 -1.8375929e-07)
(2.168236e-06 1.9017904e-05 2.4488979e-07)
(-1.1182452e-07 1.2284764e-05 1.1861671e-07)
(-7.3074752e-07 7.8652597e-06 4.9495129e-08)
(-7.6671257e-07 5.0449198e-06 1.2327228e-08)
(-6.3901236e-07 3.2091521e-06 -9.5002499e-09)
)
;
    }
    procBoundary23to22
    {
        type            processor;
        value           nonuniform List<vector> 
25
(
(-2.0006899e-06 -1.7355495e-05 5.9874627e-06)
(-1.8604707e-06 -1.0513869e-05 2.8875784e-06)
(-1.4710591e-06 -6.5418757e-06 1.439055e-06)
(-1.0820057e-06 -4.141355e-06 7.3539243e-07)
(-7.8174215e-07 -2.6481824e-06 3.9051136e-07)
(-2.430598e-06 -2.251084e-05 5.2308169e-06)
(-2.1591181e-06 -1.2884331e-05 2.6019665e-06)
(-1.6600256e-06 -7.6448076e-06 1.3317688e-06)
(-1.2036156e-06 -4.6798785e-06 6.9791579e-07)
(-8.4908009e-07 -2.9209775e-06 3.6842727e-07)
(-2.2105708e-06 -2.5429918e-05 2.7167199e-06)
(-2.2006022e-06 -1.4412917e-05 1.5976717e-06)
(-1.7336025e-06 -8.4459264e-06 9.0254313e-07)
(-1.2573268e-06 -5.1046966e-06 4.9795932e-07)
(-8.8754355e-07 -3.1471474e-06 2.7319838e-07)
(-1.7918929e-06 -2.5233503e-05 5.0410601e-08)
(-2.0411779e-06 -1.4698508e-05 3.9436467e-07)
(-1.6787944e-06 -8.74452e-06 3.3605888e-07)
(-1.2415915e-06 -5.3092232e-06 2.2009131e-07)
(-8.9169828e-07 -3.2686734e-06 1.3315866e-07)
(-1.2370904e-06 -2.3382456e-05 -1.5844495e-06)
(-1.7423025e-06 -1.4127268e-05 -5.2862326e-07)
(-1.5297287e-06 -8.6201997e-06 -1.6308297e-07)
(-1.1691615e-06 -5.3075968e-06 -4.1201333e-08)
(-8.6571325e-07 -3.2876279e-06 -1.4573103e-08)
)
;
    }
    procBoundary23to26
    {
        type            processor;
        value           nonuniform List<vector> 
25
(
(-1.2257363e-06 -1.3190947e-06 1.4124003e-07)
(-1.6881586e-06 -6.6435474e-07 2.2946308e-08)
(-1.8153656e-06 1.4437233e-07 -1.092892e-07)
(-1.6002624e-06 9.0593336e-07 -2.2289818e-07)
(-1.0945327e-06 1.4430683e-06 -2.9963747e-07)
(-1.3169148e-06 -1.4203218e-06 1.4282938e-07)
(-1.8173969e-06 -7.0585442e-07 4.0390841e-08)
(-1.9507885e-06 1.7295339e-07 -8.5398723e-08)
(-1.7026554e-06 9.9846892e-07 -2.0063873e-07)
(-1.1431698e-06 1.579918e-06 -2.8185429e-07)
(-1.3842963e-06 -1.509393e-06 1.1888344e-07)
(-1.9163867e-06 -7.5321105e-07 5.1179192e-08)
(-2.0563952e-06 1.7858227e-07 -3.4525361e-08)
(-1.796718e-06 1.0569003e-06 -1.2433713e-07)
(-1.2040322e-06 1.6775613e-06 -1.9773518e-07)
(-1.415999e-06 -1.5712358e-06 7.356688e-08)
(-1.9708057e-06 -8.0288374e-07 5.06616e-08)
(-2.1263048e-06 1.5612042e-07 1.0615636e-08)
(-1.8658652e-06 1.0686538e-06 -4.0748048e-08)
(-1.2611114e-06 1.719031e-06 -9.2260562e-08)
(-1.4132454e-06 -1.5981054e-06 1.7601712e-08)
(-1.979338e-06 -8.4563791e-07 4.6002661e-08)
(-2.1478049e-06 1.1339196e-07 5.3934284e-08)
(-1.8995942e-06 1.036406e-06 4.1982802e-08)
(-1.3044787e-06 1.7001878e-06 1.3976118e-08)
)
;
    }
}


// ************************************************************************* //
