/*--------------------------------*- C++ -*----------------------------------*\
| =========                 |                                                 |
| \\      /  F ield         | OpenFOAM: The Open Source CFD Toolbox           |
|  \\    /   O peration     | Version:  3.0.1                                 |
|   \\  /    A nd           | Web:      www.OpenFOAM.org                      |
|    \\/     M anipulation  |                                                 |
\*---------------------------------------------------------------------------*/
FoamFile
{
    version     2.0;
    format      ascii;
    class       surfaceScalarField;
    location    "0.2";
    object      phi;
}
// * * * * * * * * * * * * * * * * * * * * * * * * * * * * * * * * * * * * * //

dimensions      [0 3 -1 0 0 0 0];

internalField   nonuniform List<scalar> 
300
(
-0.0016848201
0.00015081537
-0.00023302974
-0.00129669
0.00066042553
-0.00035196445
-0.00066539943
0.00104651
-0.00038727909
9.1707576e-05
0.0012403193
-0.0003394462
0.0012062448
-0.00023813342
-0.0011764975
0.00013077863
-0.0001691818
-0.00091256293
0.00043714423
-0.00022522702
-0.00047315393
0.00066553987
-0.00023608679
5.714947e-05
0.00077419235
-0.00020244729
0.00074283227
-0.00014117264
-0.00087099388
8.6849087e-05
-0.00012614853
-0.00068502897
0.00026382174
-0.00014743258
-0.00036525881
0.00039507927
-0.00014286611
2.5435413e-05
0.00045368791
-0.00011569135
0.00042632656
-7.7436741e-05
-0.00069453228
4.1313207e-05
-8.7316089e-05
-0.00055435909
0.00012281722
-9.7769098e-05
-0.00030661367
0.00018527401
-8.7891983e-05
-2.0238508e-06
0.00021286256
-6.4981079e-05
0.00019623535
-3.7327377e-05
-0.00061286241
-6.4705491e-05
-0.00049178326
-7.3964558e-05
-0.0002788024
-6.2847132e-05
-1.8549462e-05
-4.2496621e-05
-1.7937883e-05
-0.0018037365
0.00021452626
-0.00029347432
-0.0013323767
0.0007869583
-0.00042175514
-0.00061780618
0.0011979117
-0.00046111585
0.00019332062
0.0013778247
-0.00041624837
0.0013036749
-0.00030418462
-0.0012327017
0.00017359373
-0.00018970116
-0.00092340033
0.00051493759
-0.00025405647
-0.00043956343
0.00075896664
-0.00027091807
0.00011853994
0.00086134162
-0.0002440949
0.00080701429
-0.00018065462
-0.00089223352
0.00012644585
-0.00012847396
-0.00068046669
0.00031415221
-0.00015720681
-0.00033806422
0.00044988731
-0.00016110135
6.3751162e-05
0.00050450422
-0.00014188654
0.00046654599
-0.00010336976
-0.00070497462
6.5643885e-05
-8.9835983e-05
-0.00054514405
0.00014784116
-0.00010372985
-0.00028374
0.0002102952
-0.0001009157
2.560285e-05
0.00023533431
-8.397034e-05
0.00021558403
-5.5899096e-05
-0.00062269599
-7.2805615e-05
-0.00048252891
-8.0955305e-05
-0.00025858775
-7.5184995e-05
5.9420229e-06
-5.8778891e-05
-3.3951334e-05
-0.0019318946
0.00031806442
-0.00031675008
-0.0013716882
0.00095451752
-0.00043236646
-0.00057286449
0.0013880899
-0.0004659281
0.00030541382
0.0015501137
-0.00042095434
0.0014275332
-0.00031526832
-0.001297
0.00023461126
-0.00017879874
-0.00094027207
0.00061180604
-0.00024457179
-0.00041271773
0.00086879621
-0.00026612531
0.00018209089
0.00096363106
-0.00024539159
0.00088443765
-0.00018621821
-0.00092079721
0.00016492836
-0.00011037008
-0.00068449313
0.00036744365
-0.00014680481
-0.00031884442
0.00051001817
-0.00015857361
0.00010234789
0.00056240155
-0.00014495915
0.00051403596
-0.00010677866
-0.00071872649
8.2626236e-05
-8.5125915e-05
-0.00054233423
0.00017053771
-0.00010052167
-0.00026678261
0.00023596459
-0.00010197198
5.3686999e-05
0.00026049255
-8.7024109e-05
0.00023750726
-5.6606753e-05
-0.00063073334
-7.96145e-05
-0.00047672973
-8.2655206e-05
-0.00024213023
-7.6976007e-05
3.0713527e-05
-6.0068413e-05
-3.2286157e-05
-0.0020473714
0.00045563659
-0.00028693732
-0.0014049306
0.0011420114
-0.00037813907
-0.00052825229
0.0015874226
-0.00039383578
0.00041104826
0.0017257904
-0.00034992851
0.0015570024
-0.00026392982
-0.0013626304
0.00030299379
-0.00013361949
-0.00096188517
0.00070945379
-0.00019784011
-0.00039198498
0.00097632051
-0.00022104622
0.00024137406
0.0010640757
-0.00020598565
0.00096391527
-0.00015656793
-0.00095714388
0.00019007618
-7.2671985e-05
-0.00069626558
0.0004129898
-0.00011637296
-0.00030524492
0.00056654184
-0.00013461489
0.00014067711
0.00062027657
-0.00012486816
0.0005641421
-8.8893169e-05
-0.000734697
8.7819202e-05
-6.8937727e-05
-0.00054311554
0.00018846987
-8.4106738e-05
-0.00025178814
0.00026086651
-8.6839524e-05
8.4179478e-05
0.00028739294
-7.3264192e-05
0.00026176433
-4.41468e-05
-0.0006339855
-7.6918128e-05
-0.00047050574
-7.1250301e-05
-0.00022511579
-6.3755755e-05
5.8485486e-05
-4.8033591e-05
-2.2040738e-05
-0.0021387133
0.00060904304
-0.0014206096
0.0013220615
-0.00048393959
0.001759721
0.00049671208
0.0018691936
0.001664252
-0.0014271842
0.00036407402
-0.00098564147
0.00079095873
-0.00037677808
0.0010631683
0.00029061503
0.0011451959
0.0010313553
-0.0010012521
0.00019279519
-0.00071464604
0.00044517567
-0.00029573376
0.00061438229
0.00017630794
0.00067206008
0.00060945811
-0.0007494466
7.8834539e-05
-0.0005457803
0.00020121046
-0.00023824234
0.00028406492
0.00011327288
0.00031283953
0.00028403237
-0.00062709064
-0.00046267037
-0.00020927654
8.4308055e-05
)
;

boundaryField
{
    movingWall
    {
        type            calculated;
        value           uniform 0;
    }
    CPLReceiveMD
    {
        type            calculated;
        value           nonuniform 0();
    }
    streamwiseIn
    {
        type            cyclic;
        value           nonuniform 0();
    }
    streamwiseOut
    {
        type            cyclic;
        value           nonuniform 0();
    }
    front
    {
        type            cyclic;
        value           nonuniform 0();
    }
    back
    {
        type            cyclic;
        value           nonuniform 0();
    }
    procBoundary26to8throughback
    {
        type            processorCyclic;
        value           nonuniform List<scalar> 
25
(
-0.0002029789
-0.00012229431
-7.1416107e-05
-4.1030194e-05
-2.398171e-05
-0.00024256908
-0.00013726736
-8.0649589e-05
-5.137034e-05
-3.4075441e-05
-0.00025660057
-0.00013935199
-7.8172972e-05
-4.8140519e-05
-3.2807148e-05
-0.00022785833
-0.00012288903
-6.4425441e-05
-3.4304817e-05
-1.9903073e-05
-0.00014698929
-8.3907279e-05
-3.9263361e-05
-9.2233603e-06
7.1678662e-06
)
;
    }
    procBoundary26to17
    {
        type            processor;
        value           nonuniform List<scalar> 
25
(
0.00011803789
0.00020904096
0.00025805319
0.00027666427
0.00028925554
8.3827649e-05
0.00013058572
0.00015070676
0.00015157157
0.00015927749
5.2510932e-05
8.3148222e-05
9.4760427e-05
9.2216488e-05
9.4046997e-05
2.7862867e-05
5.2775302e-05
6.2480569e-05
6.2037538e-05
6.4648605e-05
1.2569412e-05
3.4058888e-05
4.5660714e-05
4.8867246e-05
5.5957641e-05
)
;
    }
    procBoundary26to23
    {
        type            processor;
        value           nonuniform List<scalar> 
25
(
-0.0001883119
-0.00096852328
-0.0015698834
-0.0018420609
-0.0017135746
-0.00032160668
-0.0011896171
-0.0018447361
-0.0021306455
-0.0019735141
-0.00052179369
-0.0014820949
-0.0021767759
-0.002446213
-0.0022323552
-0.00075774194
-0.0018134731
-0.0025327513
-0.0027616409
-0.0024655145
-0.0009715988
-0.0021128627
-0.0028482315
-0.003030113
-0.0026413767
)
;
    }
    procBoundary26to24throughstreamwiseOut
    {
        type            processorCyclic;
        value           nonuniform List<scalar> 
25
(
0.00097678468
0.00065898669
0.00046559459
0.00035165392
0.00029761917
0.0010293915
0.00069726176
0.00048830344
0.00036299201
0.00030474374
0.0011395563
0.0007645109
0.00053057411
0.00039060709
0.00032487662
0.0012745646
0.00084275498
0.00058122733
0.00042613402
0.00035263482
0.0014088118
0.00091685633
0.0006288398
0.00046274265
0.00038633803
)
;
    }
    procBoundary26to25
    {
        type            processor;
        value           nonuniform List<scalar> 
25
(
0.0017370028
0.0012085978
0.00086420585
0.00066464245
0.00057395715
0.0018893057
0.0013078332
0.00093154476
0.00071171081
0.00060863257
0.0020660753
0.001411118
0.00099600412
0.0007549721
0.00064213496
0.0022490205
0.0015063919
0.001051615
0.00079334912
0.00067416717
0.0024134696
0.0015739929
0.0010833017
0.000819138
0.00070472661
)
;
    }
}


// ************************************************************************* //
