/*--------------------------------*- C++ -*----------------------------------*\
| =========                 |                                                 |
| \\      /  F ield         | OpenFOAM: The Open Source CFD Toolbox           |
|  \\    /   O peration     | Version:  3.0.1                                 |
|   \\  /    A nd           | Web:      www.OpenFOAM.org                      |
|    \\/     M anipulation  |                                                 |
\*---------------------------------------------------------------------------*/
FoamFile
{
    version     2.0;
    format      ascii;
    class       volVectorField;
    location    "0.2";
    object      U;
}
// * * * * * * * * * * * * * * * * * * * * * * * * * * * * * * * * * * * * * //

dimensions      [0 1 -1 0 0 0 0];

internalField   nonuniform List<vector> 
125
(
(-4.2800964e-06 4.2814157e-07 -4.3827695e-07)
(-3.7313062e-06 2.0380556e-06 -7.0100859e-07)
(-2.4569048e-06 3.2694745e-06 -8.0745676e-07)
(-7.205988e-07 3.8497273e-06 -7.7141326e-07)
(1.3335252e-06 3.6457053e-06 -6.6024831e-07)
(-2.9831388e-06 3.5456244e-07 -3.1571365e-07)
(-2.6139685e-06 1.3732542e-06 -4.4483554e-07)
(-1.7346482e-06 2.139389e-06 -4.8394786e-07)
(-5.2230952e-07 2.5157472e-06 -4.4308715e-07)
(8.9334979e-07 2.433435e-06 -3.7604819e-07)
(-2.1700177e-06 2.7295612e-07 -2.2305394e-07)
(-1.9464797e-06 8.766471e-07 -2.8824734e-07)
(-1.3144118e-06 1.3251512e-06 -2.9730011e-07)
(-4.2655278e-07 1.5339752e-06 -2.6015614e-07)
(6.1251056e-07 1.4602853e-06 -2.1451108e-07)
(-1.6994524e-06 1.6028648e-07 -1.4284648e-07)
(-1.5617733e-06 4.8333771e-07 -1.8756595e-07)
(-1.0773199e-06 7.2479799e-07 -1.881019e-07)
(-3.8717532e-07 8.3295098e-07 -1.5906551e-07)
(4.3622512e-07 7.779864e-07 -1.2798846e-07)
(-1.4840105e-06 5.1621504e-08 -9.3706316e-08)
(-1.3812581e-06 1.5349879e-07 -1.3515347e-07)
(-9.6415577e-07 2.3140064e-07 -1.358376e-07)
(-3.7290245e-07 2.6601308e-07 -1.1462387e-07)
(3.4813275e-07 2.4522585e-07 -9.3528569e-08)
(-4.6192044e-06 6.752017e-07 -6.5782402e-07)
(-3.9250608e-06 2.4725243e-06 -9.670345e-07)
(-2.4426637e-06 3.801122e-06 -1.0613261e-06)
(-5.3433667e-07 4.3810355e-06 -9.4594753e-07)
(1.5265108e-06 4.0908948e-06 -6.7904938e-07)
(-3.1775473e-06 4.8803798e-07 -4.484964e-07)
(-2.697958e-06 1.6287605e-06 -5.9920664e-07)
(-1.7065513e-06 2.4455425e-06 -6.3415945e-07)
(-4.0380341e-07 2.7965321e-06 -5.5875524e-07)
(1.0181251e-06 2.6351461e-06 -4.029205e-07)
(-2.2809763e-06 3.7645277e-07 -3.1813147e-07)
(-1.9675563e-06 1.0370282e-06 -3.8061242e-07)
(-1.2748921e-06 1.5107872e-06 -3.8013319e-07)
(-3.4473314e-07 1.7062816e-06 -3.2219145e-07)
(6.8873059e-07 1.5905596e-06 -2.2622365e-07)
(-1.7716331e-06 2.4038155e-07 -2.2028207e-07)
(-1.5636235e-06 5.7762997e-07 -2.5093195e-07)
(-1.0372977e-06 8.2506225e-07 -2.3601848e-07)
(-3.2403085e-07 9.245093e-07 -1.8630403e-07)
(4.8479153e-07 8.5232141e-07 -1.1664193e-07)
(-1.5397449e-06 8.2046205e-08 -1.6859605e-07)
(-1.3821427e-06 1.84783e-07 -1.912231e-07)
(-9.2735846e-07 2.6277155e-07 -1.7247925e-07)
(-3.1701034e-07 2.9406395e-07 -1.2672688e-07)
(3.8761129e-07 2.693457e-07 -6.5020941e-08)
(-5.0006074e-06 1.0559342e-06 -7.6252269e-07)
(-4.1348083e-06 3.048275e-06 -1.0673966e-06)
(-2.4358178e-06 4.4538491e-06 -1.1582327e-06)
(-3.3832204e-07 4.9901419e-06 -1.0465638e-06)
(1.8042183e-06 4.5683609e-06 -7.7451125e-07)
(-3.3872261e-06 6.94255e-07 -4.6042302e-07)
(-2.7996316e-06 1.9596762e-06 -6.2312287e-07)
(-1.6941968e-06 2.8205819e-06 -6.7131333e-07)
(-2.9107057e-07 3.1395033e-06 -6.1190714e-07)
(1.181547e-06 2.8862607e-06 -4.5871508e-07)
(-2.3974516e-06 5.0117047e-07 -2.9841562e-07)
(-2.0084814e-06 1.2249218e-06 -3.7979394e-07)
(-1.2559908e-06 1.7232922e-06 -3.9962008e-07)
(-2.7264324e-07 1.9064264e-06 -3.5861501e-07)
(7.8973999e-07 1.7465638e-06 -2.6278011e-07)
(-1.8430576e-06 3.09804e-07 -2.1882427e-07)
(-1.5775097e-06 6.7268443e-07 -2.5616399e-07)
(-1.012692e-06 9.3239416e-07 -2.5370988e-07)
(-2.6779877e-07 1.0283524e-06 -2.1383001e-07)
(5.5435234e-07 9.391305e-07 -1.4070598e-07)
(-1.5917308e-06 1.0327274e-07 -1.9106482e-07)
(-1.3851413e-06 2.1315005e-07 -2.0531113e-07)
(-8.9965955e-07 2.9486863e-07 -1.9038051e-07)
(-2.6544414e-07 3.2551581e-07 -1.4865471e-07)
(4.4373604e-07 2.9677841e-07 -8.2842478e-08)
(-5.373635e-06 1.5235839e-06 -7.544972e-07)
(-4.3207709e-06 3.6975136e-06 -1.0129728e-06)
(-2.4218309e-06 5.1485132e-06 -1.0741736e-06)
(-1.5061517e-07 5.6039968e-06 -9.6315501e-07)
(2.1049393e-06 5.0212741e-06 -7.2397099e-07)
(-3.5884387e-06 9.5214505e-07 -3.8980992e-07)
(-2.9088483e-06 2.3163631e-06 -5.5290307e-07)
(-1.6953356e-06 3.2041552e-06 -6.095624e-07)
(-1.9120515e-07 3.4844808e-06 -5.6458417e-07)
(1.3533045e-06 3.1468772e-06 -4.292267e-07)
(-2.5124427e-06 6.1805153e-07 -2.2804424e-07)
(-2.0687607e-06 1.4039871e-06 -3.289639e-07)
(-1.2537131e-06 1.9283906e-06 -3.6658856e-07)
(-2.0789317e-07 2.1043587e-06 -3.376129e-07)
(9.0082054e-07 1.9085686e-06 -2.4559383e-07)
(-1.9109896e-06 3.4769802e-07 -1.9336139e-07)
(-1.5985091e-06 7.5206299e-07 -2.3179715e-07)
(-9.9496376e-07 1.0342423e-06 -2.3608224e-07)
(-2.1102695e-07 1.1344085e-06 -2.0040503e-07)
(6.3680193e-07 1.0322066e-06 -1.261494e-07)
(-1.6358117e-06 1.0976315e-07 -1.980618e-07)
(-1.3814584e-06 2.3557464e-07 -1.9335737e-07)
(-8.7070203e-07 3.2602861e-07 -1.7584676e-07)
(-2.0947232e-07 3.5916503e-07 -1.3487037e-07)
(5.1312902e-07 3.2714357e-07 -6.7886396e-08)
(-5.6933203e-06 1.9830286e-06 -6.1489351e-07)
(-4.4544846e-06 4.2972884e-06 -7.7600244e-07)
(-2.3860001e-06 5.7587316e-06 -8.1309347e-07)
(1.188053e-08 6.1191072e-06 -7.2178046e-07)
(2.379701e-06 5.3749168e-06 -5.1381923e-07)
(-3.7536679e-06 1.220708e-06 -3.2085449e-07)
(-3.0193841e-06 2.6436851e-06 -4.1889693e-07)
(-1.7058779e-06 3.5281669e-06 -4.5106467e-07)
(-1.1073487e-07 3.7650454e-06 -4.1140902e-07)
(1.5071722e-06 3.3646379e-06 -3.0140349e-07)
(-2.6072264e-06 6.97619e-07 -1.797645e-07)
(-2.1470257e-06 1.5460277e-06 -2.4671771e-07)
(-1.2646398e-06 2.0967723e-06 -2.6605575e-07)
(-1.516485e-07 2.2706055e-06 -2.3685065e-07)
(1.0045584e-06 2.0496411e-06 -1.611641e-07)
(-1.9615778e-06 3.3974046e-07 -1.3809043e-07)
(-1.6202305e-06 8.0824269e-07 -1.6952606e-07)
(-9.812999e-07 1.1230862e-06 -1.6872977e-07)
(-1.5786594e-07 1.2310491e-06 -1.3440006e-07)
(7.1879867e-07 1.1168038e-06 -6.6456935e-08)
(-1.6653476e-06 9.8528168e-08 -1.2789643e-07)
(-1.3629262e-06 2.515333e-07 -1.3185426e-07)
(-8.4117254e-07 3.5504145e-07 -1.204788e-07)
(-1.5748378e-07 3.9098994e-07 -8.4395802e-08)
(5.8756051e-07 3.5499202e-07 -1.6914824e-08)
)
;

boundaryField
{
    movingWall
    {
        type            fixedValue;
        value           uniform (0 0 0);
    }
    CPLReceiveMD
    {
        type            fixedValue;
        value           nonuniform 0();
    }
    streamwiseIn
    {
        type            cyclic;
    }
    streamwiseOut
    {
        type            cyclic;
    }
    front
    {
        type            cyclic;
    }
    back
    {
        type            cyclic;
    }
    procBoundary26to8throughback
    {
        type            processorCyclic;
        value           nonuniform List<vector> 
25
(
(-5.9247096e-06 2.2475022e-06 -3.1979825e-07)
(-3.9016549e-06 1.3872741e-06 -1.7657476e-07)
(-2.6900405e-06 8.0081559e-07 -1.0792096e-07)
(-1.9874635e-06 3.9953235e-07 -7.1258741e-08)
(-1.6516054e-06 1.1992132e-07 -4.6797404e-08)
(-4.5189708e-06 4.6861836e-06 -3.6588185e-07)
(-3.0390585e-06 2.8456478e-06 -2.0702429e-07)
(-2.155052e-06 1.653358e-06 -1.1874745e-07)
(-1.6291484e-06 8.668923e-07 -7.6052482e-08)
(-1.3740407e-06 2.7320467e-07 -5.8869348e-08)
(-2.3676089e-06 6.150342e-06 -3.8444015e-07)
(-1.6878477e-06 3.7511929e-06 -2.0700343e-07)
(-1.2438461e-06 2.2107255e-06 -1.0687676e-07)
(-9.5983776e-07 1.179788e-06 -6.5969997e-08)
(-8.2324357e-07 3.7423889e-07 -5.3722304e-08)
(1.4865908e-07 6.4429187e-06 -3.3331529e-07)
(-4.1543976e-08 3.9694106e-06 -1.6507566e-07)
(-1.0300151e-07 2.3813677e-06 -7.328787e-08)
(-1.0875412e-07 1.2868405e-06 -3.7834396e-08)
(-1.0590834e-07 4.0913629e-07 -2.6242367e-08)
(2.5670472e-06 5.6304054e-06 -1.8592536e-07)
(1.6319246e-06 3.4995323e-06 -8.2661146e-08)
(1.0765732e-06 2.1435152e-06 -1.825641e-08)
(7.5879411e-07 1.1764495e-06 1.07432e-08)
(6.0876455e-07 3.7666721e-07 2.2427038e-08)
)
;
    }
    procBoundary26to17
    {
        type            processor;
        value           nonuniform List<vector> 
25
(
(-4.0827421e-06 2.4499433e-07 -1.6807399e-07)
(-3.555881e-06 1.7648018e-06 -3.1384061e-07)
(-2.372259e-06 2.9472276e-06 -4.0634803e-07)
(-6.8154512e-07 3.5771922e-06 -4.4100565e-07)
(1.0060508e-06 3.5744938e-06 -4.2457889e-07)
(-2.8705018e-06 2.7281497e-07 -1.1345509e-07)
(-2.5297238e-06 1.2159992e-06 -1.9719332e-07)
(-1.7082997e-06 1.9353859e-06 -2.5193814e-07)
(-5.1170308e-07 2.285275e-06 -2.6826436e-07)
(7.4567051e-07 2.1894088e-06 -2.5797963e-07)
(-2.1077083e-06 2.0358559e-07 -6.3906095e-08)
(-1.8933101e-06 7.7975861e-07 -1.3065044e-07)
(-1.3029833e-06 1.2149412e-06 -1.7494698e-07)
(-4.2752216e-07 1.42226e-06 -1.8796255e-07)
(5.3622153e-07 1.3424999e-06 -1.7957283e-07)
(-1.6574469e-06 1.110356e-07 -2.2498553e-08)
(-1.518368e-06 4.2456702e-07 -8.7238763e-08)
(-1.0657982e-06 6.6364967e-07 -1.2718478e-07)
(-3.8414429e-07 7.7903828e-07 -1.4098702e-07)
(3.8629825e-07 7.3140804e-07 -1.4062351e-07)
(-1.449209e-06 3.2922085e-08 2.968204e-09)
(-1.3400114e-06 1.3241449e-07 -6.0673661e-08)
(-9.4788806e-07 2.1056877e-07 -9.7575524e-08)
(-3.5931938e-07 2.496922e-07 -1.145957e-07)
(3.0584962e-07 2.3496012e-07 -1.2619221e-07)
)
;
    }
    procBoundary26to23
    {
        type            processor;
        value           nonuniform List<vector> 
25
(
(-6.3286757e-06 4.2565116e-07 -7.4592101e-07)
(-5.4553014e-06 2.9282662e-06 -1.152558e-06)
(-3.5463198e-06 4.8803723e-06 -1.3378423e-06)
(-8.9854033e-07 5.8278029e-06 -1.2469304e-06)
(1.7143783e-06 5.5776435e-06 -8.9244919e-07)
(-6.9211282e-06 8.4504146e-07 -1.076289e-06)
(-5.8238783e-06 3.6550919e-06 -1.609426e-06)
(-3.6150624e-06 5.7820031e-06 -1.8185341e-06)
(-6.9357624e-07 6.7417124e-06 -1.6991699e-06)
(2.2019497e-06 6.3379118e-06 -1.3255761e-06)
(-7.6094654e-06 1.5114003e-06 -1.3088052e-06)
(-6.1975465e-06 4.6495897e-06 -1.8481121e-06)
(-3.6360637e-06 6.9106623e-06 -2.0187045e-06)
(-4.0558236e-07 7.7888715e-06 -1.8348685e-06)
(2.7650426e-06 7.1276377e-06 -1.3890944e-06)
(-8.2917738e-06 2.3395488e-06 -1.3169044e-06)
(-6.5337776e-06 5.8062364e-06 -1.8019165e-06)
(-3.6018188e-06 8.1380622e-06 -1.9144449e-06)
(-6.3966068e-08 8.8505819e-06 -1.6935495e-06)
(3.3433299e-06 7.8612006e-06 -1.2357825e-06)
(-8.8561583e-06 3.1516225e-06 -1.0447728e-06)
(-6.795087e-06 6.9058574e-06 -1.4075669e-06)
(-3.5276967e-06 9.2678844e-06 -1.4528935e-06)
(2.7307998e-07 9.7831082e-06 -1.2503309e-06)
(3.8258419e-06 8.4469313e-06 -9.1053475e-07)
)
;
    }
    procBoundary26to24throughstreamwiseOut
    {
        type            processorCyclic;
        value           nonuniform List<vector> 
25
(
(2.9954845e-06 3.0286988e-06 -2.5095322e-07)
(2.1054057e-06 1.7947326e-06 -1.7063258e-07)
(1.5355424e-06 1.0768504e-06 -1.0764708e-07)
(1.1831927e-06 5.6839177e-07 -6.0572234e-08)
(1.0108546e-06 1.7777245e-07 -3.2862197e-08)
(3.2241612e-06 3.1972108e-06 -4.7525442e-07)
(2.2332525e-06 1.9587518e-06 -2.7055805e-07)
(1.6033977e-06 1.172948e-06 -1.4496202e-07)
(1.2199171e-06 6.2320915e-07 -6.8176811e-08)
(1.0345331e-06 1.96738e-07 -3.1123583e-08)
(3.5628555e-06 3.4066462e-06 -4.6813528e-07)
(2.429015e-06 2.125025e-06 -2.767277e-07)
(1.7191519e-06 1.2792316e-06 -1.4652507e-07)
(1.289492e-06 6.8217464e-07 -6.1819618e-08)
(1.0838041e-06 2.1476304e-07 -2.3136973e-08)
(3.9494358e-06 3.6139714e-06 -3.8767228e-07)
(2.6581363e-06 2.280362e-06 -2.3895895e-07)
(1.8599503e-06 1.387856e-06 -1.2279452e-07)
(1.3767804e-06 7.4655541e-07 -3.5958697e-08)
(1.1459386e-06 2.3536939e-07 8.9541015e-09)
(4.3146144e-06 3.8004376e-06 -2.5967255e-07)
(2.8834336e-06 2.3899027e-06 -1.3278889e-07)
(2.0042714e-06 1.4822318e-06 -6.1098014e-08)
(1.4654034e-06 8.1390525e-07 -1.2407876e-08)
(1.2042352e-06 2.5964438e-07 1.1239727e-08)
)
;
    }
    procBoundary26to25
    {
        type            processor;
        value           nonuniform List<vector> 
25
(
(-4.072249e-06 -1.3074813e-06 -1.6454634e-07)
(-2.8146537e-06 -7.3682463e-07 -1.3779001e-07)
(-1.9914441e-06 -4.070391e-07 -1.1497932e-07)
(-1.5106398e-06 -2.0202421e-07 -7.3379753e-08)
(-1.2948637e-06 -6.1261075e-08 -4.461762e-08)
(-4.4863302e-06 -1.2710566e-06 -2.465235e-07)
(-3.0887938e-06 -7.0946757e-07 -1.9511927e-07)
(-2.1787882e-06 -3.6888584e-07 -1.5317853e-07)
(-1.6400442e-06 -1.6292659e-07 -1.0732678e-07)
(-1.3913988e-06 -4.6392757e-08 -8.350273e-08)
(-4.9703326e-06 -1.1739643e-06 -3.1296588e-07)
(-3.3803894e-06 -6.4347966e-07 -2.1223143e-07)
(-2.3625062e-06 -3.192466e-07 -1.4832757e-07)
(-1.7638531e-06 -1.3233623e-07 -1.168075e-07)
(-1.4882589e-06 -3.7437134e-08 -1.0924426e-07)
(-5.465368e-06 -1.0058215e-06 -3.2025996e-07)
(-3.6479392e-06 -5.4482927e-07 -1.8646131e-07)
(-2.5174653e-06 -2.7346191e-07 -1.1918902e-07)
(-1.8724295e-06 -1.2384956e-07 -1.1327699e-07)
(-1.581738e-06 -3.8841861e-08 -1.1974064e-07)
(-5.8836691e-06 -8.0520205e-07 -2.2492785e-07)
(-3.8326256e-06 -4.4240873e-07 -1.0568075e-07)
(-2.6118915e-06 -2.4606228e-07 -6.9119921e-08)
(-1.9540853e-06 -1.3290986e-07 -9.3052155e-08)
(-1.6677527e-06 -4.3923481e-08 -1.1606061e-07)
)
;
    }
}


// ************************************************************************* //
