/*--------------------------------*- C++ -*----------------------------------*\
| =========                 |                                                 |
| \\      /  F ield         | OpenFOAM: The Open Source CFD Toolbox           |
|  \\    /   O peration     | Version:  3.0.1                                 |
|   \\  /    A nd           | Web:      www.OpenFOAM.org                      |
|    \\/     M anipulation  |                                                 |
\*---------------------------------------------------------------------------*/
FoamFile
{
    version     2.0;
    format      ascii;
    class       volScalarField;
    location    "0.1";
    object      p;
}
// * * * * * * * * * * * * * * * * * * * * * * * * * * * * * * * * * * * * * //

dimensions      [0 2 -2 0 0 0 0];

internalField   nonuniform List<scalar> 
125
(
-0.053338175
-0.053030447
-0.052661965
-0.052303284
-0.052020933
-0.053133852
-0.052927866
-0.05268244
-0.052439877
-0.05224328
-0.053002424
-0.052861829
-0.052693802
-0.052524379
-0.052383147
-0.052917743
-0.05281886
-0.052698398
-0.052574636
-0.052469111
-0.052874488
-0.052797252
-0.052700045
-0.052598684
-0.052510494
-0.053367803
-0.053037422
-0.052639863
-0.052256042
-0.051957828
-0.053149508
-0.052929377
-0.05266604
-0.052407855
-0.052200964
-0.053014846
-0.05286302
-0.052681913
-0.052501238
-0.052352332
-0.052932558
-0.052822588
-0.052690463
-0.052556644
-0.052443997
-0.052891963
-0.052802928
-0.052694146
-0.052582717
-0.052487193
-0.053395352
-0.053046618
-0.052627777
-0.052222954
-0.051908076
-0.053165446
-0.052933206
-0.052655672
-0.052383548
-0.052165099
-0.053026187
-0.05286518
-0.052673336
-0.05248232
-0.052324967
-0.052942294
-0.052824715
-0.0526837
-0.052541498
-0.052422591
-0.052901001
-0.05280508
-0.052688318
-0.052569536
-0.052469175
-0.053415397
-0.053057897
-0.052626014
-0.052206228
-0.051878622
-0.053177868
-0.052938009
-0.052650937
-0.052368532
-0.052140319
-0.05303329
-0.052866553
-0.052667685
-0.052469295
-0.052304571
-0.052945584
-0.052824372
-0.052678479
-0.052531064
-0.052407259
-0.052902403
-0.052804176
-0.052683679
-0.052560881
-0.052457432
-0.053424809
-0.053066876
-0.05263198
-0.052206582
-0.051871078
-0.053184738
-0.052942087
-0.05265156
-0.052364023
-0.052128137
-0.053036506
-0.052867175
-0.052665882
-0.052463659
-0.052292577
-0.052944236
-0.052823012
-0.052676581
-0.052527116
-0.052399668
-0.052898354
-0.052802347
-0.052682303
-0.05255854
-0.052453572
)
;

boundaryField
{
    movingWall
    {
        type            zeroGradient;
    }
    CPLReceiveMD
    {
        type            zeroGradient;
    }
    streamwiseIn
    {
        type            cyclic;
    }
    streamwiseOut
    {
        type            cyclic;
    }
    front
    {
        type            cyclic;
    }
    back
    {
        type            cyclic;
    }
    procBoundary26to8throughback
    {
        type            processorCyclic;
        value           nonuniform List<scalar> 
25
(
-0.053422436
-0.053180715
-0.053031887
-0.052940584
-0.052895822
-0.053076282
-0.052945365
-0.052867013
-0.052821616
-0.052801104
-0.052647557
-0.052659129
-0.052668929
-0.052677477
-0.052682829
-0.052222981
-0.052373242
-0.052468742
-0.052529684
-0.052560344
-0.051884167
-0.052136127
-0.052297711
-0.052402777
-0.052456416
)
;
    }
    procBoundary26to17
    {
        type            processor;
        value           nonuniform List<scalar> 
25
(
-0.05331125
-0.053028214
-0.052683589
-0.052345258
-0.052077787
-0.053116398
-0.052927404
-0.052698521
-0.052469138
-0.052280173
-0.052989501
-0.052861115
-0.05270544
-0.052546532
-0.052412295
-0.052908193
-0.05281814
-0.052707282
-0.052592591
-0.052494805
-0.052867826
-0.05279749
-0.052707928
-0.052614351
-0.052534397
)
;
    }
    procBoundary26to23
    {
        type            processor;
        value           nonuniform List<scalar> 
25
(
-0.05366216
-0.053193974
-0.052624692
-0.052077138
-0.05166538
-0.053718312
-0.0532121
-0.052596877
-0.052008113
-0.051568323
-0.053769882
-0.05323487
-0.05258425
-0.051960419
-0.051493378
-0.053807051
-0.053259534
-0.052588475
-0.051940664
-0.051451966
-0.053824678
-0.053280704
-0.052606162
-0.051949015
-0.051447279
)
;
    }
    procBoundary26to24throughstreamwiseOut
    {
        type            processorCyclic;
        value           nonuniform List<scalar> 
25
(
-0.051864799
-0.052127702
-0.052298176
-0.052403884
-0.052455352
-0.051798071
-0.052083689
-0.052264457
-0.052374594
-0.052427805
-0.051740607
-0.052043448
-0.052233766
-0.052350017
-0.052406403
-0.051701026
-0.052012667
-0.05220946
-0.052331824
-0.052392172
-0.051684019
-0.051993624
-0.052192943
-0.052321722
-0.05238717
)
;
    }
    procBoundary26to25
    {
        type            processor;
        value           nonuniform List<scalar> 
25
(
-0.053521441
-0.053258252
-0.053090227
-0.052985413
-0.052933494
-0.053564903
-0.053284063
-0.05310937
-0.053003617
-0.052952469
-0.053601077
-0.053306559
-0.053125309
-0.053016057
-0.052962941
-0.053625067
-0.053321767
-0.053134539
-0.053020834
-0.05296535
-0.053632974
-0.053327147
-0.053136587
-0.053018929
-0.052961424
)
;
    }
}


// ************************************************************************* //
