/*--------------------------------*- C++ -*----------------------------------*\
| =========                 |                                                 |
| \\      /  F ield         | OpenFOAM: The Open Source CFD Toolbox           |
|  \\    /   O peration     | Version:  3.0.1                                 |
|   \\  /    A nd           | Web:      www.OpenFOAM.org                      |
|    \\/     M anipulation  |                                                 |
\*---------------------------------------------------------------------------*/
FoamFile
{
    version     2.0;
    format      ascii;
    class       volVectorField;
    location    "0.1";
    object      U;
}
// * * * * * * * * * * * * * * * * * * * * * * * * * * * * * * * * * * * * * //

dimensions      [0 1 -1 0 0 0 0];

internalField   nonuniform List<vector> 
125
(
(-1.2257363e-06 -1.3190947e-06 1.4124003e-07)
(-1.6881586e-06 -6.6435474e-07 2.2946308e-08)
(-1.8153656e-06 1.4437233e-07 -1.092892e-07)
(-1.6002624e-06 9.0593336e-07 -2.2289818e-07)
(-1.0945327e-06 1.4430683e-06 -2.9963747e-07)
(-8.2474695e-07 -8.3820514e-07 8.2672621e-08)
(-1.1268846e-06 -4.2094014e-07 4.9052091e-09)
(-1.2181985e-06 7.9542038e-08 -8.1138832e-08)
(-1.0962806e-06 5.520479e-07 -1.5305465e-07)
(-7.7925496e-07 9.043199e-07 -1.9779834e-07)
(-5.7014478e-07 -5.3948691e-07 6.3274446e-08)
(-7.7041145e-07 -2.7211541e-07 4.7480467e-09)
(-8.4237761e-07 3.9851403e-08 -5.8752044e-08)
(-7.7548457e-07 3.3643059e-07 -1.1309441e-07)
(-5.6465621e-07 5.6377096e-07 -1.4970856e-07)
(-4.1575713e-07 -3.1936828e-07 6.0822988e-08)
(-5.4754631e-07 -1.612043e-07 1.1100925e-08)
(-6.0965253e-07 1.5587097e-08 -4.1991966e-08)
(-5.7236103e-07 1.85495e-07 -8.9744216e-08)
(-4.2623934e-07 3.1790312e-07 -1.2683807e-07)
(-3.4000829e-07 -1.0795072e-07 6.023826e-08)
(-4.353473e-07 -5.3927623e-08 1.3570099e-08)
(-4.9555432e-07 4.1118378e-09 -3.4397199e-08)
(-4.7305025e-07 6.0018637e-08 -7.8952684e-08)
(-3.5770414e-07 1.0327983e-07 -1.1780763e-07)
(-1.3169148e-06 -1.4203218e-06 1.4282938e-07)
(-1.8173969e-06 -7.0585442e-07 4.0390841e-08)
(-1.9507885e-06 1.7295339e-07 -8.5398723e-08)
(-1.7026554e-06 9.9846892e-07 -2.0063873e-07)
(-1.1431698e-06 1.579918e-06 -2.8185429e-07)
(-8.8544276e-07 -8.8120277e-07 7.8899187e-08)
(-1.2069446e-06 -4.3537451e-07 1.3335082e-08)
(-1.3019378e-06 1.05081e-07 -6.6846177e-08)
(-1.1609867e-06 6.1228387e-07 -1.4065885e-07)
(-8.0917918e-07 9.8500632e-07 -1.9520941e-07)
(-6.1496775e-07 -5.4160366e-07 5.9330028e-08)
(-8.311131e-07 -2.6657969e-07 8.3662084e-09)
(-9.0313013e-07 6.1002731e-08 -5.1097846e-08)
(-8.2273006e-07 3.714833e-07 -1.0500927e-07)
(-5.9105981e-07 6.0674294e-07 -1.4525141e-07)
(-4.5189834e-07 -3.0675954e-07 6.1289489e-08)
(-6.0433817e-07 -1.5001004e-07 1.4616024e-08)
(-6.6387486e-07 3.0549361e-08 -3.6693478e-08)
(-6.1524648e-07 2.0341316e-07 -8.2727045e-08)
(-4.5444061e-07 3.3666994e-07 -1.1613235e-07)
(-3.7320137e-07 -1.0131229e-07 6.616759e-08)
(-4.9368057e-07 -4.9066126e-08 1.953701e-08)
(-5.4956915e-07 9.1948085e-09 -2.9266534e-08)
(-5.1648022e-07 6.5074172e-08 -7.2744202e-08)
(-3.8660105e-07 1.0780759e-07 -1.0311922e-07)
(-1.3842963e-06 -1.509393e-06 1.1888344e-07)
(-1.9163867e-06 -7.5321105e-07 5.1179192e-08)
(-2.0563952e-06 1.7858227e-07 -3.4525361e-08)
(-1.796718e-06 1.0569003e-06 -1.2433713e-07)
(-1.2040322e-06 1.6775613e-06 -1.9773518e-07)
(-9.320546e-07 -9.2170449e-07 7.082076e-08)
(-1.27263e-06 -4.5296478e-07 2.1571663e-08)
(-1.3721925e-06 1.1384291e-07 -3.7686862e-08)
(-1.2246438e-06 6.4767737e-07 -9.815934e-08)
(-8.489589e-07 1.0409228e-06 -1.5139181e-07)
(-6.4937139e-07 -5.5709661e-07 4.6052107e-08)
(-8.8083933e-07 -2.7083447e-07 8.8276782e-09)
(-9.5575308e-07 7.0004102e-08 -3.5509976e-08)
(-8.6963814e-07 3.943624e-07 -7.9736582e-08)
(-6.2044578e-07 6.4284802e-07 -1.1922766e-07)
(-4.776437e-07 -3.1251393e-07 3.2522067e-08)
(-6.4552928e-07 -1.5002852e-07 4.4570157e-09)
(-7.069956e-07 3.741091e-08 -2.9913673e-08)
(-6.5179991e-07 2.1774148e-07 -6.3853766e-08)
(-4.7798189e-07 3.6000913e-07 -9.1709278e-08)
(-3.9396282e-07 -1.0305739e-07 2.6055909e-08)
(-5.3078142e-07 -4.9002957e-08 3.1171622e-09)
(-5.8783553e-07 1.1529736e-08 -2.6122673e-08)
(-5.4690293e-07 6.9980972e-08 -5.4494336e-08)
(-4.0712072e-07 1.1626411e-07 -7.4273742e-08)
(-1.415999e-06 -1.5712358e-06 7.356688e-08)
(-1.9708057e-06 -8.0288374e-07 5.06616e-08)
(-2.1263048e-06 1.5612042e-07 1.0615636e-08)
(-1.8658652e-06 1.0686538e-06 -4.0748048e-08)
(-1.2611114e-06 1.719031e-06 -9.2260562e-08)
(-9.5801779e-07 -9.5403409e-07 4.8171978e-08)
(-1.3154522e-06 -4.7772603e-07 2.2204925e-08)
(-1.4216688e-06 1.0409639e-07 -1.0213434e-08)
(-1.2746916e-06 6.5688442e-07 -4.8691055e-08)
(-8.8832073e-07 1.0635138e-06 -9.2229941e-08)
(-6.6897949e-07 -5.7990235e-07 2.5764598e-08)
(-9.1267518e-07 -2.8369434e-07 4.9936002e-09)
(-9.9169439e-07 6.877592e-08 -1.8589643e-08)
(-9.0644775e-07 4.0578887e-07 -4.6563511e-08)
(-6.4861297e-07 6.6642547e-07 -8.0840359e-08)
(-4.9042557e-07 -3.2674899e-07 4.8494398e-09)
(-6.6677391e-07 -1.5571955e-07 -4.2477037e-09)
(-7.3218564e-07 3.9930256e-08 -1.7763128e-08)
(-6.7704209e-07 2.2864177e-07 -3.5894594e-08)
(-4.9735224e-07 3.816052e-07 -5.7217284e-08)
(-4.0223244e-07 -1.0777038e-07 -6.6044318e-09)
(-5.4585915e-07 -5.0404894e-08 -6.8204155e-09)
(-6.0718065e-07 1.2978328e-08 -1.5008442e-08)
(-5.6463129e-07 7.4417654e-08 -2.7439738e-08)
(-4.2103425e-07 1.2522023e-07 -3.8938628e-08)
(-1.4132454e-06 -1.5981054e-06 1.7601712e-08)
(-1.979338e-06 -8.4563791e-07 4.6002661e-08)
(-2.1478049e-06 1.1339196e-07 5.3934284e-08)
(-1.8995942e-06 1.036406e-06 4.1982802e-08)
(-1.3044787e-06 1.7001878e-06 1.3976118e-08)
(-9.612352e-07 -9.6950678e-07 7.1186522e-09)
(-1.3310154e-06 -4.9863278e-07 1.8409406e-08)
(-1.4430884e-06 8.4637635e-08 2.05179e-08)
(-1.3066603e-06 6.418619e-07 1.1829646e-08)
(-9.2461695e-07 1.052343e-06 -1.0407382e-08)
(-6.7252922e-07 -6.0041915e-07 -3.4979481e-09)
(-9.2519357e-07 -2.972871e-07 1.1663443e-09)
(-1.0073102e-06 6.2454408e-08 3.1320758e-09)
(-9.3188885e-07 4.0715887e-07 -1.3531186e-09)
(-6.7577931e-07 6.7786067e-07 -1.7100865e-08)
(-4.8906116e-07 -3.4488452e-07 -1.2480769e-08)
(-6.6814184e-07 -1.6184396e-07 -6.8740493e-09)
(-7.3864249e-07 4.0988778e-08 -2.4901241e-09)
(-6.9125406e-07 2.3685884e-07 -3.4320383e-09)
(-5.1271798e-07 4.0190144e-07 -1.1179769e-08)
(-3.9699926e-07 -1.1451008e-07 -1.642313e-08)
(-5.3918544e-07 -5.1576821e-08 -7.664643e-09)
(-6.0845485e-07 1.4279862e-08 -2.1160222e-09)
(-5.7083311e-07 7.8426749e-08 -1.3340867e-09)
(-4.2767928e-07 1.345284e-07 -2.5313715e-09)
)
;

boundaryField
{
    movingWall
    {
        type            fixedValue;
        value           uniform (0 0 0);
    }
    CPLReceiveMD
    {
        type            fixedValue;
        value           nonuniform 0();
    }
    streamwiseIn
    {
        type            cyclic;
    }
    streamwiseOut
    {
        type            cyclic;
    }
    front
    {
        type            cyclic;
    }
    back
    {
        type            cyclic;
    }
    procBoundary26to8throughback
    {
        type            processorCyclic;
        value           nonuniform List<vector> 
25
(
(-1.3771781e-06 -1.6153595e-06 -2.5752553e-08)
(-9.4387973e-07 -9.7513375e-07 -3.1174776e-08)
(-6.6323911e-07 -5.9950177e-07 -3.3920408e-08)
(-4.8131659e-07 -3.3967815e-07 -2.3745905e-08)
(-3.8696932e-07 -1.1171584e-07 -1.1963315e-08)
(-1.9344731e-06 -8.8185032e-07 4.6555175e-08)
(-1.3020529e-06 -5.2256234e-07 1.5964118e-08)
(-9.0604516e-07 -3.0897779e-07 -9.6198505e-10)
(-6.5678326e-07 -1.6455198e-07 -5.0566708e-09)
(-5.3155205e-07 -5.1197261e-08 -4.3256174e-09)
(-2.1303247e-06 5.5580317e-08 9.7562355e-08)
(-1.4282486e-06 5.329418e-08 5.1732775e-08)
(-9.9421386e-07 4.5767896e-08 2.6252643e-08)
(-7.2874363e-07 3.4682395e-08 1.2520611e-08)
(-6.008501e-07 1.3351725e-08 6.8617395e-09)
(-1.9058234e-06 9.7015322e-07 1.2276123e-07)
(-1.3056169e-06 6.135485e-07 7.6943354e-08)
(-9.2668069e-07 3.9052718e-07 4.8475823e-08)
(-6.8573173e-07 2.2866133e-07 2.6675401e-08)
(-5.6504664e-07 7.6514683e-08 1.5464356e-08)
(-1.3135034e-06 1.6469313e-06 1.276668e-07)
(-9.2665552e-07 1.0324369e-06 9.5467173e-08)
(-6.787918e-07 6.6565309e-07 6.6560813e-08)
(-5.1768838e-07 3.9617473e-07 3.4900874e-08)
(-4.3427611e-07 1.3386578e-07 1.735902e-08)
)
;
    }
    procBoundary26to17
    {
        type            processor;
        value           nonuniform List<vector> 
25
(
(-1.134451e-06 -1.2482184e-06 1.0615732e-07)
(-1.5668676e-06 -6.5308719e-07 -4.1705658e-09)
(-1.704944e-06 7.9428926e-08 -1.1194272e-07)
(-1.5123071e-06 7.7667259e-07 -2.0219795e-07)
(-1.0393923e-06 1.294173e-06 -2.6105366e-07)
(-7.699726e-07 -8.0323718e-07 7.1394648e-08)
(-1.0431331e-06 -4.1717625e-07 -1.7375916e-09)
(-1.143978e-06 5.4543844e-08 -7.3671225e-08)
(-1.0443272e-06 5.024801e-07 -1.3643782e-07)
(-7.391626e-07 8.3507741e-07 -1.7959813e-07)
(-5.3214855e-07 -5.1975402e-07 5.4113202e-08)
(-7.0908661e-07 -2.7277541e-07 1.7461831e-09)
(-7.8528768e-07 2.1855865e-08 -5.0940517e-08)
(-7.3177355e-07 3.0817286e-07 -9.9852188e-08)
(-5.4125053e-07 5.3578267e-07 -1.3739287e-07)
(-3.8286424e-07 -3.0373851e-07 3.4221365e-08)
(-5.0152321e-07 -1.5883526e-07 -1.1187943e-09)
(-5.6302971e-07 6.2036918e-09 -3.9901881e-08)
(-5.3040037e-07 1.6929194e-07 -7.7147808e-08)
(-4.1579342e-07 3.047991e-07 -1.0818949e-07)
(-3.0741425e-07 -1.0074268e-07 1.6794896e-08)
(-3.9904511e-07 -5.1538082e-08 -5.6606156e-09)
(-4.5704637e-07 1.6104525e-09 -3.4618063e-08)
(-4.3306979e-07 5.4304947e-08 -6.3232185e-08)
(-3.5640308e-07 9.8808709e-08 -8.9753362e-08)
)
;
    }
    procBoundary26to23
    {
        type            processor;
        value           nonuniform List<vector> 
25
(
(-1.8547869e-06 -2.0946549e-06 2.5477604e-07)
(-2.5903516e-06 -1.0508916e-06 5.767244e-08)
(-2.7884866e-06 2.5078125e-07 -1.746633e-07)
(-2.3949765e-06 1.4630516e-06 -3.7485098e-07)
(-1.5627339e-06 2.275655e-06 -4.8354331e-07)
(-2.0093531e-06 -2.2945518e-06 2.6919749e-07)
(-2.8002198e-06 -1.1244489e-06 1.0219139e-07)
(-3.0062612e-06 3.0960884e-07 -1.0105612e-07)
(-2.5679513e-06 1.6416656e-06 -2.9162581e-07)
(-1.64763e-06 2.5380576e-06 -4.2970244e-07)
(-2.1210228e-06 -2.4799915e-06 2.2173469e-07)
(-2.9606053e-06 -1.2354585e-06 1.1860098e-07)
(-3.1823038e-06 3.1003625e-07 -2.0853888e-08)
(-2.7236228e-06 1.7492186e-06 -1.6834421e-07)
(-1.7429506e-06 2.7174507e-06 -2.905049e-07)
(-2.1639505e-06 -2.6057905e-06 1.3688443e-07)
(-3.0428084e-06 -1.3405115e-06 1.1463179e-07)
(-3.2932064e-06 2.5848087e-07 5.4976876e-08)
(-2.8376023e-06 1.7635928e-06 -2.8196701e-08)
(-1.8291027e-06 2.792994e-06 -1.1485647e-07)
(-2.1395497e-06 -2.6614234e-06 5.1242369e-08)
(-3.0425128e-06 -1.4272503e-06 9.7375995e-08)
(-3.3251323e-06 1.6831521e-07 1.21058e-07)
(-2.8934562e-06 1.699552e-06 1.1033021e-07)
(-1.8985132e-06 2.7677868e-06 6.1692358e-08)
)
;
    }
    procBoundary26to24throughstreamwiseOut
    {
        type            processorCyclic;
        value           nonuniform List<vector> 
25
(
(-4.0079452e-07 1.6894123e-06 -3.266757e-07)
(-3.1483609e-07 1.0819244e-06 -2.2307123e-07)
(-2.4933056e-07 6.8944621e-07 -1.6290369e-07)
(-2.1422263e-07 3.9235778e-07 -1.2839141e-07)
(-2.0085201e-07 1.2844734e-07 -1.0915066e-07)
(-4.0268938e-07 1.8369198e-06 -3.1013825e-07)
(-3.1518132e-07 1.1643938e-06 -2.1036279e-07)
(-2.4948587e-07 7.2622186e-07 -1.6079883e-07)
(-2.1325459e-07 4.0777553e-07 -1.3446959e-07)
(-1.9616648e-07 1.3280017e-07 -1.2216078e-07)
(-4.1977955e-07 1.950892e-06 -2.4227872e-07)
(-3.2545083e-07 1.2312638e-06 -1.7730089e-07)
(-2.5615588e-07 7.6533941e-07 -1.3728974e-07)
(-2.184849e-07 4.3096504e-07 -1.0676539e-07)
(-2.0037234e-07 1.4072271e-07 -8.8927536e-08)
(-4.5280535e-07 2.0094358e-06 -1.4119448e-07)
(-3.4381632e-07 1.2693828e-06 -1.2434911e-07)
(-2.6774843e-07 7.9675737e-07 -1.0189705e-07)
(-2.2712565e-07 4.5611542e-07 -7.0630684e-08)
(-2.0746957e-07 1.506114e-07 -4.7998295e-08)
(-4.9443427e-07 2.0103022e-06 -1.0409237e-08)
(-3.6642064e-07 1.2705612e-06 -2.6505145e-08)
(-2.8153897e-07 8.1905784e-07 -3.1531955e-08)
(-2.3746051e-07 4.8485195e-07 -2.376818e-08)
(-2.1645235e-07 1.633374e-07 -1.4575944e-08)
)
;
    }
    procBoundary26to25
    {
        type            processor;
        value           nonuniform List<vector> 
25
(
(-5.4143056e-07 -1.6943947e-06 2.0541018e-07)
(-3.7919898e-07 -1.0765317e-06 1.2037537e-07)
(-2.7882504e-07 -6.8110523e-07 8.7567249e-08)
(-2.3256512e-07 -3.9125603e-07 8.0135019e-08)
(-2.1642109e-07 -1.2957285e-07 7.9357218e-08)
(-5.840991e-07 -1.8297648e-06 1.9895077e-07)
(-4.0864353e-07 -1.1373216e-06 1.2064274e-07)
(-2.9234072e-07 -7.0012411e-07 8.7592818e-08)
(-2.2780187e-07 -3.9168311e-07 7.6502596e-08)
(-1.9950125e-07 -1.2765057e-07 7.3491545e-08)
(-6.0874485e-07 -1.9421793e-06 1.5026336e-07)
(-4.2417691e-07 -1.1878896e-06 9.4146697e-08)
(-2.9994691e-07 -7.2524537e-07 6.2839415e-08)
(-2.284476e-07 -4.0533844e-07 4.2984244e-08)
(-1.9625897e-07 -1.3256492e-07 3.2148238e-08)
(-6.1653108e-07 -2.0088165e-06 7.9610773e-08)
(-4.2935189e-07 -1.2247455e-06 5.1385527e-08)
(-3.0477963e-07 -7.5128656e-07 2.8151431e-08)
(-2.3211373e-07 -4.2236593e-07 7.1697487e-09)
(-1.9845921e-07 -1.3847587e-07 -3.7839773e-09)
(-6.0730261e-07 -2.0239524e-06 7.1817815e-09)
(-4.2427465e-07 -1.239349e-06 4.2713438e-09)
(-3.0331003e-07 -7.6946114e-07 -4.5740385e-09)
(-2.3312359e-07 -4.3727483e-07 -1.5983024e-08)
(-2.0090321e-07 -1.4351681e-07 -2.2927767e-08)
)
;
    }
}


// ************************************************************************* //
